
                                 *****************
                                 * O   R   C   A *
                                 *****************

           --- An Ab Initio, DFT and Semiempirical electronic structure package ---

                  #######################################################
                  #                        -***-                        #
                  #  Department of molecular theory and spectroscopy    #
                  #              Directorship: Frank Neese              #
                  # Max Planck Institute for Chemical Energy Conversion #
                  #                  D-45470 Muelheim/Ruhr              #
                  #                       Germany                       #
                  #                                                     #
                  #                  All rights reserved                #
                  #                        -***-                        #
                  #######################################################


                         Program Version 3.0.3 -  RELEASE  -


 With contributions from (in alphabetic order):
   Ute Becker             : Parallelization
   Dmytro Bykov           : SCF Hessian
   Dmitry Ganyushin       : Spin-Orbit,Spin-Spin,Magnetic field MRCI
   Andreas Hansen         : Spin unrestricted coupled pair/coupled cluster methods
   Dimitrios Liakos       : Extrapolation schemes; parallel MDCI
   Robert Izsak           : Overlap fitted RIJCOSX, COSX-SCS-MP3
   Christian Kollmar      : KDIIS, OOCD, Brueckner-CCSD(T), CCSD density
   Simone Kossmann        : Meta GGA functionals, TD-DFT gradient, OOMP2, MP2 Hessian
   Taras Petrenko         : DFT Hessian,TD-DFT gradient, ASA and ECA modules, normal mode analysis, Resonance Raman, ABS, FL, XAS/XES, NRVS
   Christoph Reimann      : Effective Core Potentials
   Michael Roemelt        : Restricted open shell CIS
   Christoph Riplinger    : Improved optimizer, TS searches, QM/MM, DLPNO-CCSD
   Barbara Sandhoefer     : DKH picture change effects
   Igor Schapiro          : Molecular dynamics
   Kantharuban Sivalingam : CASSCF convergence, NEVPT2
   Boris Wezisla          : Elementary symmetry handling
   Frank Wennmohs         : Technical directorship


 We gratefully acknowledge several colleagues who have allowed us to
 interface, adapt or use parts of their codes:
   Stefan Grimme, W. Hujo, H. Kruse, T. Risthaus : VdW corrections, initial TS optimization,
                                                   DFT functionals, gCP
   Ed Valeev                                     : LibInt (2-el integral package), F12 methods
   Garnet Chan, S. Sharma, R. Olivares           : DMRG
   Ulf Ekstrom                                   : XCFun DFT Library
   Mihaly Kallay                                 : mrcc  (arbitrary order and MRCC methods)
   Andreas Klamt, Michael Diedenhofen            : otool_cosmo (COSMO solvation model)
   Frank Weinhold                                : gennbo (NPA and NBO analysis)
   Christopher J. Cramer and Donald G. Truhlar   : smd solvation model


 Your calculation uses the libint2 library for the computation of 2-el integrals
 For citations please refer to: http://libint.valeyev.net

 This ORCA versions uses:
   CBLAS   interface :  Fast vector & matrix operations
   LAPACKE interface :  Fast linear algebra routines


Your calculation utilizes the basis: Ahlrichs-VDZ
Cite in your paper:
H - Kr: A. Schaefer, H. Horn and R. Ahlrichs, J. Chem. Phys. 97, 2571 (1992).

Your calculation utilizes the basis: Ahlrichs SVPalls1+f
Cite in your paper:
Rb - Xe: A. Schaefer, C. Huber and R. Ahlrichs, J. Chem. Phys. 100, 5829 (1994).

Your calculation utilizes diff. fcns from basis: 6-311++G(2d,2p)
Cite in your paper:
H, Li - Ne: R. Krishnan, J.S. Binkley, R. Seeger and J.A. Pople,
            J. Chem. Phys. 72, 650 (1980)
Na - Ar:    A.D. McLean and G.S. Chandler J. Chem. Phys. 72, 5639, (1980).
K  - Ca:    J-P. Blaudeau, M. P. McGrath, L.A. Curtiss and L. Radom,
            J. Chem. Phys. 107, 5016 (1997).
Ga - Kr:    L. A. Curtiss, M. P. McGrath, J-P. Blandeau, N. E. Davis,
            R. C. Binning, Jr. L. Radom, J. Chem. Phys. 103, 6104 (1995).
H - Ar:  R. Krishnan, J.S. Binkley, R. Seeger, J.A. Pople, J. Chem. Phys. 72,650 (1980)
H, Li-Cl: T. Clark, J. Chandrasekhar, P.V.R. Schleyer, J. Comp. Chem. 4, 294 (1983)

Your calculation utilizes pol. fcns from basis: Ahlrichs polarization
Cite in your paper:
H - Kr: R. Ahlrichs and coworkers, unpublished

Your calculation utilizes the basis: Ahlrichs-VDZ
Cite in your paper:
H - Kr: A. Schaefer, H. Horn and R. Ahlrichs, J. Chem. Phys. 97, 2571 (1992).

Your calculation utilizes the basis: Ahlrichs SVPalls1+f
Cite in your paper:
Rb - Xe: A. Schaefer, C. Huber and R. Ahlrichs, J. Chem. Phys. 100, 5829 (1994).

Your calculation utilizes diff. fcns from basis: 6-311++G(2d,2p)
Cite in your paper:
H, Li - Ne: R. Krishnan, J.S. Binkley, R. Seeger and J.A. Pople,
            J. Chem. Phys. 72, 650 (1980)
Na - Ar:    A.D. McLean and G.S. Chandler J. Chem. Phys. 72, 5639, (1980).
K  - Ca:    J-P. Blaudeau, M. P. McGrath, L.A. Curtiss and L. Radom,
            J. Chem. Phys. 107, 5016 (1997).
Ga - Kr:    L. A. Curtiss, M. P. McGrath, J-P. Blandeau, N. E. Davis,
            R. C. Binning, Jr. L. Radom, J. Chem. Phys. 103, 6104 (1995).
H - Ar:  R. Krishnan, J.S. Binkley, R. Seeger, J.A. Pople, J. Chem. Phys. 72,650 (1980)
H, Li-Cl: T. Clark, J. Chandrasekhar, P.V.R. Schleyer, J. Comp. Chem. 4, 294 (1983)

Your calculation utilizes pol. fcns from basis: Ahlrichs polarization
Cite in your paper:
H - Kr: R. Ahlrichs and coworkers, unpublished


AutoBuild AuxBasis requested
done building the auxiliary basis


*****************************************
The coordinations will be read from file: guess.xyz
*****************************************


================================================================================
                                        WARNINGS
                       Please study these warnings very carefully!
================================================================================
Now building the actual basis set


Error: RI is on but the HF exchange must be handled somehow
Use one of the keywords
     RIJDX  : treat the HF exchange exactly (equals RIJONX)
     RIJCOSX: treat the HF exchange by chain-of-spheres
     RIJK   : treat Coulomb and exchange both by RI


Error (ORCA_MAIN): ... aborting the run
