
                                 *****************
                                 * O   R   C   A *
                                 *****************

           --- An Ab Initio, DFT and Semiempirical electronic structure package ---

                  #######################################################
                  #                        -***-                        #
                  #  Department of molecular theory and spectroscopy    #
                  #              Directorship: Frank Neese              #
                  # Max Planck Institute for Chemical Energy Conversion #
                  #                  D-45470 Muelheim/Ruhr              #
                  #                       Germany                       #
                  #                                                     #
                  #                  All rights reserved                #
                  #                        -***-                        #
                  #######################################################


                         Program Version 3.0.3 -  RELEASE  -


 With contributions from (in alphabetic order):
   Ute Becker             : Parallelization
   Dmytro Bykov           : SCF Hessian
   Dmitry Ganyushin       : Spin-Orbit,Spin-Spin,Magnetic field MRCI
   Andreas Hansen         : Spin unrestricted coupled pair/coupled cluster methods
   Dimitrios Liakos       : Extrapolation schemes; parallel MDCI
   Robert Izsak           : Overlap fitted RIJCOSX, COSX-SCS-MP3
   Christian Kollmar      : KDIIS, OOCD, Brueckner-CCSD(T), CCSD density
   Simone Kossmann        : Meta GGA functionals, TD-DFT gradient, OOMP2, MP2 Hessian
   Taras Petrenko         : DFT Hessian,TD-DFT gradient, ASA and ECA modules, normal mode analysis, Resonance Raman, ABS, FL, XAS/XES, NRVS
   Christoph Reimann      : Effective Core Potentials
   Michael Roemelt        : Restricted open shell CIS
   Christoph Riplinger    : Improved optimizer, TS searches, QM/MM, DLPNO-CCSD
   Barbara Sandhoefer     : DKH picture change effects
   Igor Schapiro          : Molecular dynamics
   Kantharuban Sivalingam : CASSCF convergence, NEVPT2
   Boris Wezisla          : Elementary symmetry handling
   Frank Wennmohs         : Technical directorship


 We gratefully acknowledge several colleagues who have allowed us to
 interface, adapt or use parts of their codes:
   Stefan Grimme, W. Hujo, H. Kruse, T. Risthaus : VdW corrections, initial TS optimization,
                                                   DFT functionals, gCP
   Ed Valeev                                     : LibInt (2-el integral package), F12 methods
   Garnet Chan, S. Sharma, R. Olivares           : DMRG
   Ulf Ekstrom                                   : XCFun DFT Library
   Mihaly Kallay                                 : mrcc  (arbitrary order and MRCC methods)
   Andreas Klamt, Michael Diedenhofen            : otool_cosmo (COSMO solvation model)
   Frank Weinhold                                : gennbo (NPA and NBO analysis)
   Christopher J. Cramer and Donald G. Truhlar   : smd solvation model


 Your calculation uses the libint2 library for the computation of 2-el integrals
 For citations please refer to: http://libint.valeyev.net

 This ORCA versions uses:
   CBLAS   interface :  Fast vector & matrix operations
   LAPACKE interface :  Fast linear algebra routines




*****************************************
The coordinations will be read from file: guess.xyz
*****************************************



WARNING: no GTO basis set was defined - using SV(P)

Your calculation utilizes the basis: Ahlrichs-VDZ
Cite in your paper:
H - Kr: A. Schaefer, H. Horn and R. Ahlrichs, J. Chem. Phys. 97, 2571 (1992).

Your calculation utilizes the basis: Ahlrichs SVPalls1+f
Cite in your paper:
Rb - Xe: A. Schaefer, C. Huber and R. Ahlrichs, J. Chem. Phys. 100, 5829 (1994).

Your calculation utilizes pol. fcns from basis: Ahlrichs polarization
Cite in your paper:
H - Kr: R. Ahlrichs and coworkers, unpublished

================================================================================
                                        WARNINGS
                       Please study these warnings very carefully!
================================================================================
Now building the actual basis set
INFO   : Checking CIS options ...


INFO   : the flag for use of LIBINT has been found!

================================================================================
                                       INPUT FILE
================================================================================
NAME = C:\Users\Jan\Documents\lib\ORCAunleashed\output\job_11_04_2018_j4\job_11_04_2018_j4.in
|  1> ! B3LYP  TightScf  cosmo(Acetonitrile) 
|  2> 
|  3> %tddft
|  4> 	mode riints
|  5> 	NRoots 10
|  6> 	MaxDim 200
|  7> 	triplets false
|  8> end
|  9> 
| 10> *xyzfile 0 1 guess.xyz
| 11> 
| 12> 
| 13> 
| 14>                          ****END OF INPUT****
================================================================================

                       ****************************
                       * Single Point Calculation *
                       ****************************

---------------------------------
CARTESIAN COORDINATES (ANGSTROEM)
---------------------------------
  C      7.757500    1.620650   -2.149430
  C      7.514370    2.346750   -3.323340
  C      8.515510    3.153720   -3.871940
  C      9.774750    3.236340   -3.264200
  N     10.762290    4.090790   -3.843580
  N     12.006160    3.912760   -3.805580
  C     12.668440    2.674100   -3.544580
  C     13.918650    2.698850   -2.913550
  C     14.609660    1.510120   -2.660850
  C     14.062490    0.279590   -3.049220
  C     12.821000    0.248910   -3.698920
  C     12.128800    1.436870   -3.951770
  C     10.010880    2.520360   -2.072830
  C      9.008780    1.714130   -1.525000
  H      6.549100    2.288610   -3.810570
  H      8.314050    3.712760   -4.777220
  H     14.353760    3.643510   -2.611950
  H     15.571620    1.547130   -2.165090
  H     12.393420   -0.694930   -4.013380
  H     11.181260    1.388640   -4.470690
  H     10.961810    2.590260   -1.562650
  H      9.204580    1.166350   -0.611690
  N      6.742170    0.804170   -1.592950
  H      5.819280    0.734180   -2.046230
  H      6.914480    0.270370   -0.728400
  N     14.763780   -0.924740   -2.794320
  H     15.678420   -0.907760   -2.319710
  H     14.367540   -1.832100   -3.080270

----------------------------
CARTESIAN COORDINATES (A.U.)
----------------------------
  NO LB      ZA    FRAG    MASS        X           Y           Z
   0 C     6.0000    0    12.011         14.659550483894110          3.062584658939477         -4.061834044034356
   1 C     6.0000    0    12.011         14.200101368953836          4.434714804779698         -6.280202449905852
   2 C     6.0000    0    12.011         16.091981790667759          5.959667103070130         -7.316906206975051
   3 C     6.0000    0    12.011         18.471600527546752          6.115796276254704         -6.168444046345750
   4 N     7.0000    0    14.007         20.337780673839347          7.730472771383718         -7.263313573817045
   5 N     7.0000    0    14.007         22.688354320039974          7.394044827761717         -7.191503980728037
   6 C     6.0000    0    12.011         23.939882144013342          5.053316654718819         -6.698285459774590
   7 C     6.0000    0    12.011         26.302436653903030          5.100087376533370         -5.505811577486263
   8 C     6.0000    0    12.011         27.608256309703954          2.853713229357160         -5.028277783444362
   9 C     6.0000    0    12.011         26.574254861006263          0.528348529783043         -5.762190722075359
  10 C     6.0000    0    12.011         24.228178763004369          0.470371731994339         -6.989945791283996
  11 C     6.0000    0    12.011         22.920110333104077          2.715290790047429         -7.467763044245984
  12 C     6.0000    0    12.011         18.917821559549580          4.762790158889766         -3.917081022175988
  13 C     6.0000    0    12.011         17.024127000747093          3.239236257938435         -2.881832354229909
  14 H     1.0000    0     1.008         12.376005423663669          4.324846127353515         -7.200933714136304
  15 H     1.0000    0     1.008         15.711277563727982          7.016099600977466         -9.027637481491281
  16 H     1.0000    0     1.008         27.124675392033502          6.885236066203420         -4.935870175495614
  17 H     1.0000    0     1.008         29.426097261490838          2.923651993573586         -4.091427155291563
  18 H     1.0000    0     1.008         23.420169662662321         -1.313227382245896         -7.584189071356873
  19 H     1.0000    0     1.008         21.129519232168334          2.624149298608407         -8.448379729660401
  20 H     1.0000    0     1.008         20.714818832079317          4.894882015650861         -2.952980543172044
  21 H     1.0000    0     1.008         17.394135377768876          2.204082076299052         -1.155926578858290
  22 N     7.0000    0    14.007         12.740854848339845          1.519661065115453         -3.010239245029858
  23 H     1.0000    0     1.008         10.996845496605262          1.387399133002305         -3.866814307013683
  24 H     1.0000    0     1.008         13.066473558475817          0.510925254828289         -1.376476515948240
  25 N     7.0000    0    14.007         27.899500901463899         -1.747505345082338         -5.280499530538831
  26 H     1.0000    0     1.008         29.627920012593627         -1.715417795328355         -4.383616610118467
  27 H     1.0000    0     1.008         27.150715818158940         -3.462167249957125         -5.820866718533614

--------------------------------
INTERNAL COORDINATES (ANGSTROEM)
--------------------------------
 C      0   0   0   0.000000     0.000     0.000
 C      1   0   0   1.401570     0.000     0.000
 C      2   1   0   1.398014   120.231     0.000
 C      3   2   1   1.400664   120.504     0.621
 N      4   3   2   1.428636   118.735   181.091
 N      5   4   3   1.257120   125.945   210.428
 C      6   5   4   1.428641   125.944    19.778
 C      7   6   5   1.400656   118.736   210.432
 C      8   7   6   1.398010   120.504   181.090
 C      9   8   7   1.401581   120.230     0.621
 C     10   9   8   1.401552   119.569     0.329
 C     11  10   9   1.397971   120.254   359.649
 C      4   3   2   1.409875   119.161   358.473
 C     13   4   3   1.397973   120.262     1.501
 H      2   1   3   1.082829   120.245   180.146
 H      3   2   1   1.082887   119.526   180.233
 H      8   7   6   1.082897   119.969     1.481
 H      9   8   7   1.082827   119.525   180.476
 H     11  10   9   1.082841   120.230   179.325
 H     12  11  10   1.081405   118.865   178.888
 H     13   4   3   1.081405   120.871   182.054
 H     14  13   4   1.082837   119.515   179.752
 N      1   2   3   1.416758   120.214   179.928
 H     23   1   2   1.030576   120.541     0.202
 H     23   1   2   1.030573   120.543   180.188
 N     10   9   8   1.416754   120.213   179.928
 H     26  10   9   1.030587   120.541     0.202
 H     26  10   9   1.030571   120.543   180.188

---------------------------
INTERNAL COORDINATES (A.U.)
---------------------------
 C      0   0   0   0.000000     0.000     0.000
 C      1   0   0   2.648583     0.000     0.000
 C      2   1   0   2.641864   120.231     0.000
 C      3   2   1   2.646871   120.504     0.621
 N      4   3   2   2.699731   118.735   181.091
 N      5   4   3   2.375613   125.945   210.428
 C      6   5   4   2.699740   125.944    19.778
 C      7   6   5   2.646856   118.736   210.432
 C      8   7   6   2.641855   120.504   181.090
 C      9   8   7   2.648605   120.230     0.621
 C     10   9   8   2.648550   119.569     0.329
 C     11  10   9   2.641782   120.254   359.649
 C      4   3   2   2.664277   119.161   358.473
 C     13   4   3   2.641786   120.262     1.501
 H      2   1   3   2.046251   120.245   180.146
 H      3   2   1   2.046359   119.526   180.233
 H      8   7   6   2.046379   119.969     1.481
 H      9   8   7   2.046247   119.525   180.476
 H     11  10   9   2.046272   120.230   179.325
 H     12  11  10   2.043559   118.865   178.888
 H     13   4   3   2.043560   120.871   182.054
 H     14  13   4   2.046265   119.515   179.752
 N      1   2   3   2.677286   120.214   179.928
 H     23   1   2   1.947507   120.541     0.202
 H     23   1   2   1.947500   120.543   180.188
 N     10   9   8   2.677277   120.213   179.928
 H     26  10   9   1.947527   120.541     0.202
 H     26  10   9   1.947496   120.543   180.188

---------------------
BASIS SET INFORMATION
---------------------
There are 3 groups of distinct atoms

 Group   1 Type C   : 7s4p1d contracted to 3s2p1d pattern {511/31/1}
 Group   2 Type N   : 7s4p1d contracted to 3s2p1d pattern {511/31/1}
 Group   3 Type H   : 4s contracted to 2s pattern {31}

Atom   0C    basis set group =>   1
Atom   1C    basis set group =>   1
Atom   2C    basis set group =>   1
Atom   3C    basis set group =>   1
Atom   4N    basis set group =>   2
Atom   5N    basis set group =>   2
Atom   6C    basis set group =>   1
Atom   7C    basis set group =>   1
Atom   8C    basis set group =>   1
Atom   9C    basis set group =>   1
Atom  10C    basis set group =>   1
Atom  11C    basis set group =>   1
Atom  12C    basis set group =>   1
Atom  13C    basis set group =>   1
Atom  14H    basis set group =>   3
Atom  15H    basis set group =>   3
Atom  16H    basis set group =>   3
Atom  17H    basis set group =>   3
Atom  18H    basis set group =>   3
Atom  19H    basis set group =>   3
Atom  20H    basis set group =>   3
Atom  21H    basis set group =>   3
Atom  22N    basis set group =>   2
Atom  23H    basis set group =>   3
Atom  24H    basis set group =>   3
Atom  25N    basis set group =>   2
Atom  26H    basis set group =>   3
Atom  27H    basis set group =>   3
------------------------------------------------------------------------------
                           ORCA GTO INTEGRAL CALCULATION
------------------------------------------------------------------------------

                         BASIS SET STATISTICS AND STARTUP INFO

 # of primitive gaussian shells          ...  240
 # of primitive gaussian functions       ...  432
 # of contracted shell                   ...  120
 # of contracted basis functions         ...  248
 Highest angular momentum                ...    2
 Maximum contraction depth               ...    5
 Integral package used                   ... LIBINT
 Integral threshhold            Thresh   ... 2.500e-011
 Primitive cut-off              TCut     ... 2.500e-012


                              INTEGRAL EVALUATION

 One electron integrals                  ... done
 Pre-screening matrix                    ... done
 Shell pair data                         ... done (   0.000 sec)

-------------------------------------------------------------------------------
                                 ORCA SCF
-------------------------------------------------------------------------------

------------
SCF SETTINGS
------------
Hamiltonian:
 Density Functional     Method          .... DFT(GTOs)
 Exchange Functional    Exchange        .... B88
   X-Alpha parameter    XAlpha          ....  0.666667
   Becke's b parameter  XBeta           ....  0.004200
 Correlation Functional Correlation     .... LYP
 LDA part of GGA corr.  LDAOpt          .... VWN-5
 Gradients option       PostSCFGGA      .... off
 Hybrid DFT is turned on
   Fraction HF Exchange ScalHFX         ....  0.200000
   Scaling of DF-GGA-X  ScalDFX         ....  0.720000
   Scaling of DF-GGA-C  ScalDFC         ....  0.810000
   Scaling of DF-LDA-C  ScalLDAC        ....  1.000000
   Perturbative correction              ....  0.000000
   NL short-range parameter             ....  4.800000


General Settings:
 Integral files         IntName         .... C:\Users\Jan\Documents\lib\ORCAunleashed\output\job_11_04_2018_j4\job_11_04_2018_j4
 Hartree-Fock type      HFTyp           .... RHF
 Total Charge           Charge          ....    0
 Multiplicity           Mult            ....    1
 Number of Electrons    NEL             ....  112
 Basis Dimension        Dim             ....  248
 Nuclear Repulsion      ENuc            ....    990.5151756435 Eh

Convergence Acceleration:
 DIIS                   CNVDIIS         .... on
   Start iteration      DIISMaxIt       ....    12
   Startup error        DIISStart       ....  0.200000
   # of expansion vecs  DIISMaxEq       ....     5
   Bias factor          DIISBfac        ....   1.050
   Max. coefficient     DIISMaxC        ....  10.000
 Newton-Raphson         CNVNR           .... off
 SOSCF                  CNVSOSCF        .... on
   Start iteration      SOSCFMaxIt      ....   150
   Startup grad/error   SOSCFStart      ....  0.003300
 Level Shifting         CNVShift        .... on
   Level shift para.    LevelShift      ....    0.2500
   Turn off err/grad.   ShiftErr        ....    0.0010
 Zerner damping         CNVZerner       .... off
 Static damping         CNVDamp         .... on
   Fraction old density DampFac         ....    0.7000
   Max. Damping (<1)    DampMax         ....    0.9800
   Min. Damping (>=0)   DampMin         ....    0.0000
   Turn off err/grad.   DampErr         ....    0.1000
 Fernandez-Rico         CNVRico         .... off

SCF Procedure:
 Maximum # iterations   MaxIter         ....   125
 SCF integral mode      SCFMode         .... Direct
   Integral package                     .... LIBINT
 Reset frequeny         DirectResetFreq ....    20
 Integral Threshold     Thresh          .... 2.500e-011 Eh
 Primitive CutOff       TCut            .... 2.500e-012 Eh

Convergence Tolerance:
 Convergence Check Mode ConvCheckMode   .... Total+1el-Energy
 Energy Change          TolE            .... 1.000e-008 Eh
 1-El. energy change                    .... 1.000e-005 Eh
 Orbital Gradient       TolG            .... 1.000e-005
 Orbital Rotation angle TolX            .... 1.000e-005
 DIIS Error             TolErr          .... 5.000e-007


Diagonalization of the overlap matrix:
Smallest eigenvalue                        ... 2.232e-004
Time for diagonalization                   ...    0.031 sec
Threshold for overlap eigenvalues          ... 1.000e-008
Number of eigenvalues below threshold      ... 0
Time for construction of square roots      ...    0.266 sec
Total time needed                          ...    0.297 sec

-------------------
DFT GRID GENERATION
-------------------

General Integration Accuracy     IntAcc      ...  4.340
Radial Grid Type                 RadialGrid  ... Gauss-Chebyshev
Angular Grid (max. acc.)         AngularGrid ... Lebedev-110
Angular grid pruning method      GridPruning ... 3 (G Style)
Weight generation scheme         WeightScheme... Becke
Basis function cutoff            BFCut       ...   1.0000e-011
Integration weight cutoff        WCut        ...   1.0000e-014
Grids for H and He will be reduced by one unit

# of grid points (after initial pruning)     ...  36208 (   0.0 sec)
# of grid points (after weights+screening)   ...  32905 (   0.3 sec)
nearest neighbour list constructed           ...    0.0 sec
Grid point re-assignment to atoms done       ...    0.0 sec
Grid point division into batches done        ...    0.0 sec
Reduced shell lists constructed in    0.9 sec

Total number of grid points                  ...    32905
Total number of batches                      ...      531
Average number of points per batch           ...       61
Average number of grid points per atom       ...     1175
Average number of shells per batch           ...    69.16 (57.63%)
Average number of basis functions per batch  ...   139.32 (56.18%)
Average number of large shells per batch     ...    49.09 (70.98%)
Average number of large basis fcns per batch ...    99.41 (71.35%)
Maximum spatial batch extension              ...  17.84, 23.46, 26.84 au
Average spatial batch extension              ...   3.44,  3.77,  4.01 au

Time for grid setup =    4.201 sec

------------------------------
INITIAL GUESS: MODEL POTENTIAL
------------------------------
Loading Hartree-Fock densities                     ... done
Calculating cut-offs                               ... done
Setting up the integral package                    ... done
Initializing the effective Hamiltonian             ... done
Starting the Coulomb interaction                   ... done (   0.7 sec)
Reading the grid                                   ... done
Mapping shells                                     ... done
Starting the XC term evaluation                    ... done (   1.0 sec)
  promolecular density results
     # of electrons  =    111.978066588
     EX              =    -91.505572056
     EC              =     -3.790927129
     EX+EC           =    -95.296499185
Transforming the Hamiltonian                       ... done (   0.0 sec)
Diagonalizing the Hamiltonian                      ... done (   0.0 sec)
Back transforming the eigenvectors                 ... done (   0.0 sec)
Now organizing SCF variables                       ... done
                      ------------------
                      INITIAL GUESS DONE (   6.1 sec)
                      ------------------

--------------------
COSMO INITIALIZATION
--------------------

Epsilon                                      ...   36.6000
Refractive Index                             ...    1.3440
Potential Evaluation                         ...  ANALYTIC
Technical COSMO parameters:
  rsolv                                      ...    1.3000
  routf                                      ...    0.8500
  disex                                      ...   10.0000
  nppa                                       ... 1082   
  nspa                                       ...   92   
Radii:
 Radius for C  used is    3.7795 Bohr (=   2.0000 Ang.)
 Radius for N  used is    3.4582 Bohr (=   1.8300 Ang.)
 Radius for H  used is    2.4566 Bohr (=   1.3000 Ang.)
Initializing COSMO package            ... done
Setting COSMO radii                   ... done
Setting atoms and making cavity       ...  USING 1082 GRID
done
Cholesky decomposition of A           ... done
--------------
SCF ITERATIONS
--------------
ITER       Energy         Delta-E        Max-DP      RMS-DP      [F,P]     Damp
               ***  Starting incremental Fock matrix formation  ***
  0   -682.1864257670   0.000000000000 0.08060000  0.00224118  0.2177911 0.7000
  1   -682.3351658573  -0.148740090240 0.04760272  0.00158478  0.1024353 0.7000
                               ***Turning on DIIS***
  2   -682.4007360841  -0.065570226793 0.06299316  0.00291814  0.0325919 0.0000
  3   -682.4979334131  -0.097197329044 0.03610122  0.00091614  0.0544684 0.0000
  4   -682.5196570098  -0.021723596750 0.01037881  0.00031140  0.0089413 0.0000
  5   -682.5207415334  -0.001084523552 0.00287717  0.00008418  0.0040462 0.0000
                      *** Initiating the SOSCF procedure ***
                           *** Shutting down DIIS ***
                      *** Re-Reading the Fockian *** 
                      *** Removing any level shift *** 
ITER      Energy       Delta-E        Grad      Rot      Max-DP    RMS-DP
  6   -682.52082191  -0.0000803739  0.000662  0.000662  0.001203  0.000058
               *** Restarting incremental Fock matrix formation ***
  7   -682.52082944  -0.0000075321  0.000307  0.001778  0.001201  0.000039
  8   -682.52082292   0.0000065150  0.000632  0.001577  0.000726  0.000024
  9   -682.52083281  -0.0000098852  0.000029  0.000110  0.000148  0.000004
 10   -682.52083274   0.0000000684  0.000045  0.000065  0.000079  0.000002
 11   -682.52083286  -0.0000001192  0.000004  0.000013  0.000020  0.000001
 12   -682.52083286  -0.0000000012  0.000005  0.000006  0.000012  0.000000
                  ***Gradient check signals convergence***
              ***Rediagonalizing the Fockian in SOSCF/NRSCF***

               *****************************************************
               *                     SUCCESS                       *
               *           SCF CONVERGED AFTER  13 CYCLES          *
               *****************************************************

Setting up the final grid:

General Integration Accuracy     IntAcc      ...  4.670
Radial Grid Type                 RadialGrid  ... Gauss-Chebyshev
Angular Grid (max. acc.)         AngularGrid ... Lebedev-302
Angular grid pruning method      GridPruning ... 3 (G Style)
Weight generation scheme         WeightScheme... Becke
Basis function cutoff            BFCut       ...   1.0000e-011
Integration weight cutoff        WCut        ...   1.0000e-014
Grids for H and He will be reduced by one unit

# of grid points (after initial pruning)     ... 140120 (   0.1 sec)
# of grid points (after weights+screening)   ... 124998 (   1.0 sec)
nearest neighbour list constructed           ...    0.0 sec
Grid point re-assignment to atoms done       ...    0.0 sec
Grid point division into batches done        ...    0.5 sec
Reduced shell lists constructed in    1.9 sec

Total number of grid points                  ...   124998
Total number of batches                      ...     1969
Average number of points per batch           ...       63
Average number of grid points per atom       ...     4464
Average number of shells per batch           ...    62.77 (52.31%)
Average number of basis functions per batch  ...   125.54 (50.62%)
Average number of large shells per batch     ...    43.69 (69.61%)
Average number of large basis fcns per batch ...    87.72 (69.87%)
Maximum spatial batch extension              ...  18.65, 19.91, 22.21 au
Average spatial batch extension              ...   2.29,  2.43,  2.50 au

Final grid set up in    3.0 sec
Final integration                            ... done (   2.9 sec)
Change in XC energy                          ...    -0.000679444
Integrated number of electrons               ...   111.999994672
Previous integrated no of electrons          ...   111.991147420
   7.13061552548970        2.60708506571152      -0.526489904008763     
  8.224198098217174E-004  0.278736501612404       2.950527846422250E-003
Total Energy after outlying charge correction =   -682.521704107 Eh

----------------
TOTAL SCF ENERGY
----------------

Total Energy       :         -682.52151231 Eh          -18572.35455 eV
Total Energy       :         -682.52151231 Eh          -18572.35455 eV
COSMO(ediel)       :           -0.02981325 Eh              -0.81126 eV

Components:
Nuclear Repulsion  :          990.51517564 Eh           26953.28821 eV
Electronic Energy  :        -1673.03668795 Eh          -45525.64276 eV

One Electron Energy:        -2890.90844913 Eh          -78665.61818 eV
Two Electron Energy:         1217.87176118 Eh           33139.97543 eV

Virial components:
Potential Energy   :        -1358.43168288 Eh          -36964.80535 eV
Kinetic Energy     :          675.91017057 Eh           18392.45080 eV
Virial Ratio       :            2.00978139


DFT components:
N(Alpha)           :       55.999997335947 electrons
N(Beta)            :       55.999997335947 electrons
N(Total)           :      111.999994671894 electrons
E(X)               :      -73.670400694944 Eh       
E(C)               :       -4.470775776717 Eh       
E(XC)              :      -78.141176471661 Eh       

---------------
SCF CONVERGENCE
---------------

  Last Energy change         ...   7.1964e-011  Tolerance :  1.0000e-008
  Last MAX-Density change    ...   1.9458e-006  Tolerance :  1.0000e-007
  Last RMS-Density change    ...   6.9146e-008  Tolerance :  5.0000e-009
  Last Orbital Gradient      ...   3.7108e-007  Tolerance :  1.0000e-005
  Last Orbital Rotation      ...   2.4162e-006  Tolerance :  1.0000e-005

             **** THE GBW FILE WAS UPDATED (C:\Users\Jan\Documents\lib\ORCAunleashed\output\job_11_04_2018_j4\job_11_04_2018_j4.gbw) ****
             **** DENSITY FILE WAS UPDATED (C:\Users\Jan\Documents\lib\ORCAunleashed\output\job_11_04_2018_j4\job_11_04_2018_j4.scfp.tmp) ****
             **** ENERGY FILE WAS UPDATED (C:\Users\Jan\Documents\lib\ORCAunleashed\output\job_11_04_2018_j4\job_11_04_2018_j4.en.tmp) ****
----------------
ORBITAL ENERGIES
----------------

  NO   OCC          E(Eh)            E(eV) 
   0   2.0000     -14.362322      -390.8187 
   1   2.0000     -14.362201      -390.8154 
   2   2.0000     -14.324544      -389.7906 
   3   2.0000     -14.324468      -389.7886 
   4   2.0000     -10.233131      -278.4576 
   5   2.0000     -10.233043      -278.4553 
   6   2.0000     -10.207632      -277.7638 
   7   2.0000     -10.207542      -277.7613 
   8   2.0000     -10.188389      -277.2402 
   9   2.0000     -10.188210      -277.2353 
  10   2.0000     -10.187713      -277.2218 
  11   2.0000     -10.187678      -277.2208 
  12   2.0000     -10.181176      -277.0439 
  13   2.0000     -10.181164      -277.0436 
  14   2.0000     -10.179855      -277.0079 
  15   2.0000     -10.179597      -277.0009 
  16   2.0000      -1.006548       -27.3896 
  17   2.0000      -0.894732       -24.3469 
  18   2.0000      -0.894105       -24.3298 
  19   2.0000      -0.841109       -22.8877 
  20   2.0000      -0.827596       -22.5200 
  21   2.0000      -0.762051       -20.7365 
  22   2.0000      -0.741490       -20.1770 
  23   2.0000      -0.738578       -20.0977 
  24   2.0000      -0.723782       -19.6951 
  25   2.0000      -0.653638       -17.7864 
  26   2.0000      -0.617168       -16.7940 
  27   2.0000      -0.611261       -16.6332 
  28   2.0000      -0.607394       -16.5280 
  29   2.0000      -0.562424       -15.3043 
  30   2.0000      -0.539979       -14.6936 
  31   2.0000      -0.512511       -13.9461 
  32   2.0000      -0.511265       -13.9122 
  33   2.0000      -0.508078       -13.8255 
  34   2.0000      -0.503360       -13.6971 
  35   2.0000      -0.446567       -12.1517 
  36   2.0000      -0.445737       -12.1291 
  37   2.0000      -0.444959       -12.1079 
  38   2.0000      -0.440162       -11.9774 
  39   2.0000      -0.425092       -11.5673 
  40   2.0000      -0.423782       -11.5317 
  41   2.0000      -0.399859       -10.8807 
  42   2.0000      -0.398857       -10.8535 
  43   2.0000      -0.391205       -10.6452 
  44   2.0000      -0.388223       -10.5641 
  45   2.0000      -0.373113       -10.1529 
  46   2.0000      -0.370168       -10.0728 
  47   2.0000      -0.349964        -9.5230 
  48   2.0000      -0.348232        -9.4759 
  49   2.0000      -0.304720        -8.2918 
  50   2.0000      -0.295598        -8.0436 
  51   2.0000      -0.262978        -7.1560 
  52   2.0000      -0.251890        -6.8543 
  53   2.0000      -0.226372        -6.1599 
  54   2.0000      -0.212246        -5.7755 
  55   2.0000      -0.178028        -4.8444 
  56   0.0000      -0.068734        -1.8704 
  57   0.0000      -0.017721        -0.4822 
  58   0.0000      -0.001591        -0.0433 
  59   0.0000       0.019101         0.5198 
  60   0.0000       0.045131         1.2281 
  61   0.0000       0.069332         1.8866 
  62   0.0000       0.070397         1.9156 
  63   0.0000       0.085851         2.3361 
  64   0.0000       0.091335         2.4854 
  65   0.0000       0.098433         2.6785 
  66   0.0000       0.100454         2.7335 
  67   0.0000       0.133548         3.6340 
  68   0.0000       0.141078         3.8389 
  69   0.0000       0.146568         3.9883 
  70   0.0000       0.156266         4.2522 
  71   0.0000       0.160888         4.3780 
  72   0.0000       0.165710         4.5092 
  73   0.0000       0.172348         4.6898 
  74   0.0000       0.179837         4.8936 
  75   0.0000       0.230020         6.2592 
  76   0.0000       0.240843         6.5537 
  77   0.0000       0.251351         6.8396 
  78   0.0000       0.257746         7.0136 
  79   0.0000       0.281757         7.6670 
  80   0.0000       0.282887         7.6977 
  81   0.0000       0.304018         8.2728 
  82   0.0000       0.305915         8.3244 
  83   0.0000       0.308246         8.3878 
  84   0.0000       0.320548         8.7226 
  85   0.0000       0.325204         8.8492 
  86   0.0000       0.326422         8.8824 
  87   0.0000       0.360069         9.7980 
  88   0.0000       0.375695        10.2232 
  89   0.0000       0.389846        10.6082 
  90   0.0000       0.399087        10.8597 
  91   0.0000       0.403723        10.9859 
  92   0.0000       0.418275        11.3818 
  93   0.0000       0.433054        11.7840 
  94   0.0000       0.438347        11.9280 
  95   0.0000       0.465881        12.6773 
  96   0.0000       0.479502        13.0479 
  97   0.0000       0.480467        13.0742 
  98   0.0000       0.484557        13.1855 
  99   0.0000       0.488285        13.2869 
 100   0.0000       0.498718        13.5708 
 101   0.0000       0.501430        13.6446 
 102   0.0000       0.502463        13.6727 
 103   0.0000       0.519278        14.1303 
 104   0.0000       0.525372        14.2961 
 105   0.0000       0.540794        14.7157 
 106   0.0000       0.549351        14.9486 
 107   0.0000       0.554063        15.0768 
 108   0.0000       0.555890        15.1265 
 109   0.0000       0.559277        15.2187 
 110   0.0000       0.570462        15.5231 
 111   0.0000       0.585730        15.9385 
 112   0.0000       0.593415        16.1477 
 113   0.0000       0.604692        16.4545 
 114   0.0000       0.624816        17.0021 
 115   0.0000       0.640553        17.4303 
 116   0.0000       0.653736        17.7891 
 117   0.0000       0.666941        18.1484 
 118   0.0000       0.677971        18.4485 
 119   0.0000       0.682276        18.5657 
 120   0.0000       0.686658        18.6849 
 121   0.0000       0.708269        19.2730 
 122   0.0000       0.708292        19.2736 
 123   0.0000       0.712532        19.3890 
 124   0.0000       0.716998        19.5105 
 125   0.0000       0.720164        19.5967 
 126   0.0000       0.736341        20.0369 
 127   0.0000       0.738625        20.0990 
 128   0.0000       0.749294        20.3893 
 129   0.0000       0.751504        20.4495 
 130   0.0000       0.754349        20.5269 
 131   0.0000       0.759045        20.6547 
 132   0.0000       0.768176        20.9031 
 133   0.0000       0.773555        21.0495 
 134   0.0000       0.785379        21.3713 
 135   0.0000       0.790873        21.5208 
 136   0.0000       0.794788        21.6273 
 137   0.0000       0.817110        22.2347 
 138   0.0000       0.817984        22.2585 
 139   0.0000       0.842203        22.9175 
 140   0.0000       0.847384        23.0585 
 141   0.0000       0.876109        23.8401 
 142   0.0000       0.880057        23.9476 
 143   0.0000       0.900822        24.5126 
 144   0.0000       0.903969        24.5983 
 145   0.0000       0.918183        24.9850 
 146   0.0000       0.941426        25.6175 
 147   0.0000       0.941736        25.6259 
 148   0.0000       0.992578        27.0094 
 149   0.0000       0.993009        27.0211 
 150   0.0000       1.008238        27.4355 
 151   0.0000       1.015577        27.6353 
 152   0.0000       1.050461        28.5845 
 153   0.0000       1.052778        28.6476 
 154   0.0000       1.102178        29.9918 
 155   0.0000       1.109466        30.1901 
 156   0.0000       1.126162        30.6444 
 157   0.0000       1.187922        32.3250 
 158   0.0000       1.240277        33.7496 
 159   0.0000       1.249886        34.0111 
 160   0.0000       1.264576        34.4109 
 161   0.0000       1.272205        34.6184 
 162   0.0000       1.288240        35.0548 
 163   0.0000       1.290983        35.1294 
 164   0.0000       1.330429        36.2028 
 165   0.0000       1.399454        38.0811 
 166   0.0000       1.401363        38.1330 
 167   0.0000       1.418674        38.6041 
 168   0.0000       1.457443        39.6590 
 169   0.0000       1.461147        39.7598 
 170   0.0000       1.463095        39.8128 
 171   0.0000       1.469193        39.9788 
 172   0.0000       1.486053        40.4376 
 173   0.0000       1.489876        40.5416 
 174   0.0000       1.501591        40.8604 
 175   0.0000       1.506848        41.0034 
 176   0.0000       1.515080        41.2274 
 177   0.0000       1.529291        41.6141 
 178   0.0000       1.533010        41.7153 
 179   0.0000       1.550583        42.1935 
 180   0.0000       1.743332        47.4385 
 181   0.0000       1.748037        47.5665 
 182   0.0000       1.757093        47.8129 
 183   0.0000       1.758724        47.8573 
 184   0.0000       1.764432        48.0126 
 185   0.0000       1.819020        49.4980 
 186   0.0000       1.838999        50.0417 
 187   0.0000       1.859940        50.6115 
 188   0.0000       1.879464        51.1428 
 189   0.0000       1.884103        51.2691 
 190   0.0000       1.893185        51.5162 
 191   0.0000       1.968275        53.5595 
 192   0.0000       1.978221        53.8301 
 193   0.0000       1.984694        54.0063 
 194   0.0000       2.003578        54.5201 
 195   0.0000       2.007431        54.6250 
 196   0.0000       2.028750        55.2051 
 197   0.0000       2.042924        55.5908 
 198   0.0000       2.055299        55.9275 
 199   0.0000       2.056980        55.9733 
 200   0.0000       2.067675        56.2643 
 201   0.0000       2.068276        56.2807 
 202   0.0000       2.070610        56.3442 
 203   0.0000       2.101348        57.1806 
 204   0.0000       2.134119        58.0723 
 205   0.0000       2.139498        58.2187 
 206   0.0000       2.149278        58.4848 
 207   0.0000       2.185909        59.4816 
 208   0.0000       2.288934        62.2851 
 209   0.0000       2.293654        62.4135 
 210   0.0000       2.300643        62.6037 
 211   0.0000       2.305823        62.7446 
 212   0.0000       2.340793        63.6962 
 213   0.0000       2.348429        63.9040 
 214   0.0000       2.388329        64.9897 
 215   0.0000       2.394967        65.1704 
 216   0.0000       2.404085        65.4185 
 217   0.0000       2.406149        65.4747 
 218   0.0000       2.411403        65.6176 
 219   0.0000       2.449398        66.6515 
 220   0.0000       2.457492        66.8718 
 221   0.0000       2.481968        67.5378 
 222   0.0000       2.521722        68.6195 
 223   0.0000       2.545816        69.2752 
 224   0.0000       2.580416        70.2167 
 225   0.0000       2.580721        70.2250 
 226   0.0000       2.592063        70.5336 
 227   0.0000       2.618956        71.2654 
 228   0.0000       2.627188        71.4894 
 229   0.0000       2.637384        71.7669 
 230   0.0000       2.658816        72.3501 
 231   0.0000       2.675853        72.8137 
 232   0.0000       2.709188        73.7208 
 233   0.0000       2.711423        73.7816 
 234   0.0000       2.757210        75.0275 
 235   0.0000       2.757404        75.0328 
 236   0.0000       2.821007        76.7635 
 237   0.0000       2.902567        78.9829 
 238   0.0000       2.917884        79.3997 
 239   0.0000       2.966514        80.7230 
 240   0.0000       2.968993        80.7904 
 241   0.0000       3.036661        82.6318 
 242   0.0000       3.089618        84.0728 
 243   0.0000       3.136614        85.3516 
 244   0.0000       3.266323        88.8812 
 245   0.0000       3.419848        93.0588 
 246   0.0000       3.453210        93.9666 
 247   0.0000       3.517920        95.7275 

                    ********************************
                    * MULLIKEN POPULATION ANALYSIS *
                    ********************************

-----------------------
MULLIKEN ATOMIC CHARGES
-----------------------
   0 C :    0.249536
   1 C :   -0.178131
   2 C :   -0.108384
   3 C :    0.095492
   4 N :   -0.142655
   5 N :   -0.142648
   6 C :    0.097703
   7 C :   -0.110090
   8 C :   -0.173945
   9 C :    0.248724
  10 C :   -0.180934
  11 C :   -0.078075
  12 C :   -0.076825
  13 C :   -0.181863
  14 H :    0.056239
  15 H :    0.050917
  16 H :    0.050029
  17 H :    0.055237
  18 H :    0.053328
  19 H :    0.073789
  20 H :    0.073631
  21 H :    0.054115
  22 N :   -0.422595
  23 H :    0.265010
  24 H :    0.265516
  25 N :   -0.423587
  26 H :    0.265855
  27 H :    0.264610
Sum of atomic charges:   -0.0000000

--------------------------------
MULLIKEN REDUCED ORBITAL CHARGES
--------------------------------
  0 C s       :     2.920478  s :     2.920478
      pz      :     0.943734  p :     2.770670
      px      :     0.913600
      py      :     0.913336
      dz2     :     0.011197  d :     0.059316
      dxz     :     0.014876
      dyz     :     0.007679
      dx2y2   :     0.012917
      dxy     :     0.012647
  1 C s       :     3.305047  s :     3.305047
      pz      :     0.978127  p :     2.838486
      px      :     0.832646
      py      :     1.027712
      dz2     :     0.007068  d :     0.034598
      dxz     :     0.008739
      dyz     :     0.005747
      dx2y2   :     0.008202
      dxy     :     0.004842
  2 C s       :     3.325190  s :     3.325190
      pz      :     0.856038  p :     2.746504
      px      :     0.975816
      py      :     0.914650
      dz2     :     0.006320  d :     0.036690
      dxz     :     0.008538
      dyz     :     0.006623
      dx2y2   :     0.008091
      dxy     :     0.007118
  3 C s       :     2.957295  s :     2.957295
      pz      :     0.970874  p :     2.894160
      px      :     0.925111
      py      :     0.998176
      dz2     :     0.009641  d :     0.053053
      dxz     :     0.012681
      dyz     :     0.008173
      dx2y2   :     0.010996
      dxy     :     0.011562
  4 N s       :     3.582060  s :     3.582060
      pz      :     1.134639  p :     3.522108
      px      :     0.947604
      py      :     1.439865
      dz2     :     0.003924  d :     0.038487
      dxz     :     0.010069
      dyz     :     0.002958
      dx2y2   :     0.008669
      dxy     :     0.012867
  5 N s       :     3.582117  s :     3.582117
      pz      :     1.109340  p :     3.522050
      px      :     1.067071
      py      :     1.345638
      dz2     :     0.003826  d :     0.038481
      dxz     :     0.008930
      dyz     :     0.003221
      dx2y2   :     0.012446
      dxy     :     0.010057
  6 C s       :     2.955655  s :     2.955655
      pz      :     1.037942  p :     2.893597
      px      :     0.958779
      py      :     0.896876
      dz2     :     0.005982  d :     0.053046
      dxz     :     0.006288
      dyz     :     0.008643
      dx2y2   :     0.016111
      dxy     :     0.016022
  7 C s       :     3.325151  s :     3.325151
      pz      :     0.974693  p :     2.748244
      px      :     0.972529
      py      :     0.801022
      dz2     :     0.004833  d :     0.036695
      dxz     :     0.005778
      dyz     :     0.005584
      dx2y2   :     0.010833
      dxy     :     0.009667
  8 C s       :     3.304276  s :     3.304276
      pz      :     1.015694  p :     2.835088
      px      :     0.858914
      py      :     0.960480
      dz2     :     0.002924  d :     0.034581
      dxz     :     0.005081
      dyz     :     0.006680
      dx2y2   :     0.011109
      dxy     :     0.008787
  9 C s       :     2.920530  s :     2.920530
      pz      :     0.937565  p :     2.771437
      px      :     0.940138
      py      :     0.893734
      dz2     :     0.006861  d :     0.059308
      dxz     :     0.007262
      dyz     :     0.013738
      dx2y2   :     0.014589
      dxy     :     0.016858
 10 C s       :     3.317058  s :     3.317058
      pz      :     1.031074  p :     2.829132
      px      :     0.976922
      py      :     0.821136
      dz2     :     0.004242  d :     0.034744
      dxz     :     0.005382
      dyz     :     0.005323
      dx2y2   :     0.010653
      dxy     :     0.009143
 11 C s       :     3.279086  s :     3.279086
      pz      :     0.943030  p :     2.762347
      px      :     0.856897
      py      :     0.962419
      dz2     :     0.002906  d :     0.036643
      dxz     :     0.005676
      dyz     :     0.007966
      dx2y2   :     0.011119
      dxy     :     0.008976
 12 C s       :     3.275541  s :     3.275541
      pz      :     0.964789  p :     2.764624
      px      :     0.836699
      py      :     0.963136
      dz2     :     0.007662  d :     0.036659
      dxz     :     0.009758
      dyz     :     0.005791
      dx2y2   :     0.008593
      dxy     :     0.004856
 13 C s       :     3.317401  s :     3.317401
      pz      :     0.885141  p :     2.829715
      px      :     0.977082
      py      :     0.967492
      dz2     :     0.006393  d :     0.034748
      dxz     :     0.008016
      dyz     :     0.006630
      dx2y2   :     0.007366
      dxy     :     0.006344
 14 H s       :     0.943761  s :     0.943761
 15 H s       :     0.949083  s :     0.949083
 16 H s       :     0.949971  s :     0.949971
 17 H s       :     0.944763  s :     0.944763
 18 H s       :     0.946672  s :     0.946672
 19 H s       :     0.926211  s :     0.926211
 20 H s       :     0.926369  s :     0.926369
 21 H s       :     0.945885  s :     0.945885
 22 N s       :     3.412151  s :     3.412151
      pz      :     1.304524  p :     3.992731
      px      :     1.178362
      py      :     1.509846
      dz2     :     0.002965  d :     0.017713
      dxz     :     0.004258
      dyz     :     0.003849
      dx2y2   :     0.004434
      dxy     :     0.002208
 23 H s       :     0.734990  s :     0.734990
 24 H s       :     0.734484  s :     0.734484
 25 N s       :     3.413219  s :     3.413219
      pz      :     1.635144  p :     3.992662
      px      :     1.247818
      py      :     1.109701
      dz2     :     0.001606  d :     0.017706
      dxz     :     0.003137
      dyz     :     0.002558
      dx2y2   :     0.006189
      dxy     :     0.004215
 26 H s       :     0.734145  s :     0.734145
 27 H s       :     0.735390  s :     0.735390


                     *******************************
                     * LOEWDIN POPULATION ANALYSIS *
                     *******************************

----------------------
LOEWDIN ATOMIC CHARGES
----------------------
   0 C :    0.022435
   1 C :   -0.164944
   2 C :   -0.111440
   3 C :   -0.083423
   4 N :   -0.076922
   5 N :   -0.077123
   6 C :   -0.083358
   7 C :   -0.111701
   8 C :   -0.163770
   9 C :    0.022134
  10 C :   -0.157520
  11 C :   -0.109213
  12 C :   -0.109151
  13 C :   -0.157497
  14 H :    0.131688
  15 H :    0.131215
  16 H :    0.131058
  17 H :    0.131643
  18 H :    0.131539
  19 H :    0.134946
  20 H :    0.134835
  21 H :    0.131708
  22 N :   -0.346518
  23 H :    0.249091
  24 H :    0.249134
  25 N :   -0.346954
  26 H :    0.249349
  27 H :    0.248761

-------------------------------
LOEWDIN REDUCED ORBITAL CHARGES
-------------------------------
  0 C s       :     2.843708  s :     2.843708
      pz      :     1.029953  p :     2.990549
      px      :     1.009576
      py      :     0.951020
      dz2     :     0.026673  d :     0.143308
      dxz     :     0.037995
      dyz     :     0.018706
      dx2y2   :     0.029805
      dxy     :     0.030130
  1 C s       :     2.893589  s :     2.893589
      pz      :     1.054518  p :     3.184074
      px      :     1.066280
      py      :     1.063276
      dz2     :     0.017689  d :     0.087281
      dxz     :     0.022010
      dyz     :     0.016226
      dx2y2   :     0.018417
      dxy     :     0.012940
  2 C s       :     2.901272  s :     2.901272
      pz      :     1.039857  p :     3.118845
      px      :     1.058953
      py      :     1.020036
      dz2     :     0.015097  d :     0.091323
      dxz     :     0.022576
      dyz     :     0.013872
      dx2y2   :     0.020967
      dxy     :     0.018811
  3 C s       :     2.855276  s :     2.855276
      pz      :     1.061021  p :     3.094451
      px      :     1.018650
      py      :     1.014780
      dz2     :     0.024144  d :     0.133696
      dxz     :     0.033646
      dyz     :     0.021224
      dx2y2   :     0.026430
      dxy     :     0.028251
  4 N s       :     3.258394  s :     3.258394
      pz      :     1.142091  p :     3.734537
      px      :     1.128895
      py      :     1.463551
      dz2     :     0.008660  d :     0.083991
      dxz     :     0.019280
      dyz     :     0.004236
      dx2y2   :     0.023322
      dxy     :     0.028493
  5 N s       :     3.258407  s :     3.258407
      pz      :     1.100824  p :     3.734719
      px      :     1.233476
      py      :     1.400418
      dz2     :     0.008703  d :     0.083997
      dxz     :     0.015139
      dyz     :     0.005581
      dx2y2   :     0.028435
      dxy     :     0.026138
  6 C s       :     2.855297  s :     2.855297
      pz      :     1.049476  p :     3.094378
      px      :     1.047580
      py      :     0.997322
      dz2     :     0.013048  d :     0.133684
      dxz     :     0.015523
      dyz     :     0.020241
      dx2y2   :     0.043553
      dxy     :     0.041319
  7 C s       :     2.901242  s :     2.901242
      pz      :     0.996489  p :     3.119169
      px      :     1.047456
      py      :     1.075224
      dz2     :     0.010357  d :     0.091290
      dxz     :     0.014123
      dyz     :     0.012370
      dx2y2   :     0.028238
      dxy     :     0.026203
  8 C s       :     2.893609  s :     2.893609
      pz      :     1.060260  p :     3.182876
      px      :     1.061332
      py      :     1.061284
      dz2     :     0.006482  d :     0.087285
      dxz     :     0.009734
      dyz     :     0.015979
      dx2y2   :     0.030164
      dxy     :     0.024926
  9 C s       :     2.843710  s :     2.843710
      pz      :     0.963025  p :     2.990878
      px      :     1.031923
      py      :     0.995930
      dz2     :     0.014779  d :     0.143278
      dxz     :     0.017180
      dyz     :     0.030559
      dx2y2   :     0.037301
      dxy     :     0.043459
 10 C s       :     2.894215  s :     2.894215
      pz      :     1.050018  p :     3.175463
      px      :     1.054959
      py      :     1.070486
      dz2     :     0.008902  d :     0.087842
      dxz     :     0.013456
      dyz     :     0.011988
      dx2y2   :     0.028040
      dxy     :     0.025455
 11 C s       :     2.902083  s :     2.902083
      pz      :     1.000951  p :     3.116072
      px      :     1.046786
      py      :     1.068335
      dz2     :     0.006595  d :     0.091059
      dxz     :     0.010767
      dyz     :     0.018777
      dx2y2   :     0.030018
      dxy     :     0.024902
 12 C s       :     2.901933  s :     2.901933
      pz      :     1.051049  p :     3.116159
      px      :     1.063965
      py      :     1.001145
      dz2     :     0.019040  d :     0.091059
      dxz     :     0.023831
      dyz     :     0.016242
      dx2y2   :     0.019040
      dxy     :     0.012907
 13 C s       :     2.894191  s :     2.894191
      pz      :     1.058871  p :     3.175459
      px      :     1.058680
      py      :     1.057908
      dz2     :     0.015322  d :     0.087847
      dxz     :     0.021929
      dyz     :     0.013927
      dx2y2   :     0.019357
      dxy     :     0.017313
 14 H s       :     0.868312  s :     0.868312
 15 H s       :     0.868785  s :     0.868785
 16 H s       :     0.868942  s :     0.868942
 17 H s       :     0.868357  s :     0.868357
 18 H s       :     0.868461  s :     0.868461
 19 H s       :     0.865054  s :     0.865054
 20 H s       :     0.865165  s :     0.865165
 21 H s       :     0.868292  s :     0.868292
 22 N s       :     3.162800  s :     3.162800
      pz      :     1.367767  p :     4.145409
      px      :     1.249073
      py      :     1.528569
      dz2     :     0.006668  d :     0.038309
      dxz     :     0.009564
      dyz     :     0.007322
      dx2y2   :     0.009029
      dxy     :     0.005726
 23 H s       :     0.750909  s :     0.750909
 24 H s       :     0.750866  s :     0.750866
 25 N s       :     3.162922  s :     3.162922
      pz      :     1.643461  p :     4.145713
      px      :     1.317015
      py      :     1.185237
      dz2     :     0.002669  d :     0.038319
      dxz     :     0.005321
      dyz     :     0.005402
      dx2y2   :     0.014136
      dxy     :     0.010792
 26 H s       :     0.750651  s :     0.750651
 27 H s       :     0.751239  s :     0.751239


                      *****************************
                      * MAYER POPULATION ANALYSIS *
                      *****************************

  NA   - Mulliken gross atomic population
  ZA   - Total nuclear charge
  QA   - Mulliken gross atomic charge
  VA   - Mayer's total valence
  BVA  - Mayer's bonded valence
  FA   - Mayer's free valence

  ATOM       NA         ZA         QA         VA         BVA        FA
  0 C      5.7505     6.0000     0.2495     3.9456     3.9456    -0.0000
  1 C      6.1781     6.0000    -0.1781     3.7467     3.7467    -0.0000
  2 C      6.1084     6.0000    -0.1084     3.8029     3.8029    -0.0000
  3 C      5.9045     6.0000     0.0955     3.8961     3.8961    -0.0000
  4 N      7.1427     7.0000    -0.1427     2.8704     2.8704    -0.0000
  5 N      7.1426     7.0000    -0.1426     2.8696     2.8696     0.0000
  6 C      5.9023     6.0000     0.0977     3.8970     3.8970     0.0000
  7 C      6.1101     6.0000    -0.1101     3.8046     3.8046    -0.0000
  8 C      6.1739     6.0000    -0.1739     3.7460     3.7460     0.0000
  9 C      5.7513     6.0000     0.2487     3.9474     3.9474     0.0000
 10 C      6.1809     6.0000    -0.1809     3.7665     3.7665    -0.0000
 11 C      6.0781     6.0000    -0.0781     3.8087     3.8087     0.0000
 12 C      6.0768     6.0000    -0.0768     3.8127     3.8127    -0.0000
 13 C      6.1819     6.0000    -0.1819     3.7687     3.7687     0.0000
 14 H      0.9438     1.0000     0.0562     0.9640     0.9640    -0.0000
 15 H      0.9491     1.0000     0.0509     0.9722     0.9722     0.0000
 16 H      0.9500     1.0000     0.0500     0.9722     0.9722    -0.0000
 17 H      0.9448     1.0000     0.0552     0.9638     0.9638    -0.0000
 18 H      0.9467     1.0000     0.0533     0.9649     0.9649    -0.0000
 19 H      0.9262     1.0000     0.0738     0.9619     0.9619    -0.0000
 20 H      0.9264     1.0000     0.0736     0.9624     0.9624     0.0000
 21 H      0.9459     1.0000     0.0541     0.9648     0.9648     0.0000
 22 N      7.4226     7.0000    -0.4226     3.0742     3.0742    -0.0000
 23 H      0.7350     1.0000     0.2650     0.9055     0.9055    -0.0000
 24 H      0.7345     1.0000     0.2655     0.9050     0.9050     0.0000
 25 N      7.4236     7.0000    -0.4236     3.0717     3.0717     0.0000
 26 H      0.7341     1.0000     0.2659     0.9051     0.9051    -0.0000
 27 H      0.7354     1.0000     0.2646     0.9056     0.9056     0.0000

  Mayer bond orders larger than 0.1
B(  0-C ,  1-C ) :   1.2962 B(  0-C , 13-C ) :   1.2756 B(  0-C , 22-N ) :   1.2332 
B(  1-C ,  2-C ) :   1.3650 B(  1-C , 14-H ) :   0.9750 B(  2-C ,  3-C ) :   1.3292 
B(  2-C , 15-H ) :   0.9760 B(  3-C ,  4-N ) :   1.0721 B(  3-C , 12-C ) :   1.3057 
B(  4-N ,  5-N ) :   1.6077 B(  5-N ,  6-C ) :   1.0712 B(  6-C ,  7-C ) :   1.3310 
B(  6-C , 11-C ) :   1.3051 B(  7-C ,  8-C ) :   1.3644 B(  7-C , 16-H ) :   0.9755 
B(  8-C ,  9-C ) :   1.2972 B(  8-C , 17-H ) :   0.9738 B(  9-C , 10-C ) :   1.2775 
B(  9-C , 25-N ) :   1.2309 B( 10-C , 11-C ) :   1.3994 B( 10-C , 18-H ) :   0.9770 
B( 11-C , 19-H ) :   0.9579 B( 12-C , 13-C ) :   1.4024 B( 12-C , 20-H ) :   0.9582 
B( 13-C , 21-H ) :   0.9769 B( 22-N , 23-H ) :   0.8684 B( 22-N , 24-H ) :   0.8687 
B( 25-N , 26-H ) :   0.8680 B( 25-N , 27-H ) :   0.8694 

-------
TIMINGS
-------

Total SCF time: 0 days 0 hours 5 min 17 sec 

Total time                  ....     317.224 sec
Sum of individual times     ....     352.122 sec  (111.0%)

Fock matrix formation       ....     304.508 sec  ( 96.0%)
  Coulomb formation         ....     284.830 sec  ( 93.5% of F)
  XC integration            ....      19.473 sec  (  6.4% of F)
    Basis function eval.    ....       4.202 sec  ( 21.6% of XC)
    Density eval.           ....       4.732 sec  ( 24.3% of XC)
    XC-Functional eval.     ....       1.610 sec  (  8.3% of XC)
    XC-Potential eval.      ....       5.807 sec  ( 29.8% of XC)
Diagonalization             ....       0.173 sec  (  0.1%)
Density matrix formation    ....       0.015 sec  (  0.0%)
Population analysis         ....       0.109 sec  (  0.0%)
Initial guess               ....       6.107 sec  (  1.9%)
Orbital Transformation      ....       0.000 sec  (  0.0%)
Orbital Orthonormalization  ....       0.000 sec  (  0.0%)
DIIS solution               ....       0.266 sec  (  0.1%)
SOSCF solution              ....       0.095 sec  (  0.0%)
Grid generation             ....       7.217 sec  (  2.3%)
COSMO(total)                ....      33.632 sec  ( 10.6%)
   Initialization           ....       5.426 sec  ( 16.1% of COSMO)
   Potential evaluation     ....      15.168 sec  ( 45.1% of COSMO)
   Charge calculation       ....       2.346 sec  (  7.0% of COSMO)
   Fock-Matrix contrib.     ....      10.643 sec  ( 31.6% of COSMO)
   Outer-lying charge       ....       1.328 sec  (  3.9% of COSMO)
------------------------------------------------------------------------------
                        ORCA TD-DFT/TDA CALCULATION
------------------------------------------------------------------------------

Input orbitals are from        ... C:\Users\Jan\Documents\lib\ORCAunleashed\output\job_11_04_2018_j4\job_11_04_2018_j4.gbw
CI-vector output               ... C:\Users\Jan\Documents\lib\ORCAunleashed\output\job_11_04_2018_j4\job_11_04_2018_j4.cis
Tamm-Dancoff approximation     ... operative
CIS-Integral strategy          ... RI-integrals
Integral files                 ... C:\Users\Jan\Documents\lib\ORCAunleashed\output\job_11_04_2018_j4\job_11_04_2018_j4
Reference state                ... RHF
Generation of triplets         ... off
Number of operators            ... 1
Orbital ranges used for CIS calculation:
 Operator 0:  Orbitals  16... 55  to  56...247
XAS localization array:
 Operator 0:  Orbitals  -1... -1
-------------------
XC-INTEGRATION GRID
-------------------

General Integration Accuracy     IntAcc      ...  3.670
Radial Grid Type                 RadialGrid  ... Gauss-Chebyshev
Angular Grid (max. acc.)         AngularGrid ... Lebedev-50
Angular grid pruning method      GridPruning ... 3 (G Style)
Weight generation scheme         WeightScheme... Becke
Basis function cutoff            BFCut       ...   1.0000e-011
Integration weight cutoff        WCut        ...   1.0000e-014
Grids for H and He will be reduced by one unit

# of grid points (after initial pruning)     ...  16528 (   0.0 sec)
# of grid points (after weights+screening)   ...  15127 (   0.1 sec)
nearest neighbour list constructed           ...    0.0 sec
Grid point re-assignment to atoms done       ...    0.0 sec
Grid point division into batches done        ...    0.0 sec
Reduced shell lists constructed in    0.3 sec

Total number of grid points                  ...    15127
Total number of batches                      ...      249
Average number of points per batch           ...       60
Average number of grid points per atom       ...      540
Average number of shells per batch           ...    72.69 (60.57%)
Average number of basis functions per batch  ...   147.00 (59.27%)
Average number of large shells per batch     ...    51.95 (71.47%)
Average number of large basis fcns per batch ...   105.55 (71.80%)
Maximum spatial batch extension              ...  17.78, 18.08, 18.66 au
Average spatial batch extension              ...   4.17,  4.61,  5.07 au


-----------------
RI-TRANSFORMATION
-----------------

Dimension of the orbital-basis  ... 248
Dimension of the aux-basis      ... 0

An error has occured in the CIS module
CALLING COMMAND: C:\Users\Jan\Desktop\Arbeitsplatz\Apps\orca\_orca_3_0_3/orca_cis C:\Users\Jan\Documents\lib\ORCAunleashed\output\job_11_04_2018_j4\job_11_04_2018_j4.cisinp.tmp
RETURN CODE    : -1073741819
ABORTING THE RUN
