17
	Energy:       0.7196393
C         -8.84131        2.53519        0.01688
C         -7.45626        3.22804        0.08096
C         -6.15844        2.36247       -0.02310
H         -7.40544        3.75714        1.02191
H         -7.43358        3.91178       -0.76640
C         -4.90196        3.29949       -0.03405
H         -6.16933        1.75226       -0.93013
H         -6.10706        1.64345        0.80830
H         -4.87032        3.90279       -0.94718
H         -3.95560        2.72953       -0.02155
H         -4.86126        4.02658        0.78543
C        -10.10431        3.45673        0.25278
H         -8.83952        1.73607        0.76350
H         -8.92250        2.08074       -0.97435
H        -10.17639        3.72482        1.30785
H        -11.00736        2.83152        0.06558
H        -10.22485        4.42643       -0.26727
