
                                 *****************
                                 * O   R   C   A *
                                 *****************

           --- An Ab Initio, DFT and Semiempirical electronic structure package ---

                  #######################################################
                  #                        -***-                        #
                  #  Department of molecular theory and spectroscopy    #
                  #              Directorship: Frank Neese              #
                  # Max Planck Institute for Chemical Energy Conversion #
                  #                  D-45470 Muelheim/Ruhr              #
                  #                       Germany                       #
                  #                                                     #
                  #                  All rights reserved                #
                  #                        -***-                        #
                  #######################################################


                         Program Version 3.0.3 -  RELEASE  -


 With contributions from (in alphabetic order):
   Ute Becker             : Parallelization
   Dmytro Bykov           : SCF Hessian
   Dmitry Ganyushin       : Spin-Orbit,Spin-Spin,Magnetic field MRCI
   Andreas Hansen         : Spin unrestricted coupled pair/coupled cluster methods
   Dimitrios Liakos       : Extrapolation schemes; parallel MDCI
   Robert Izsak           : Overlap fitted RIJCOSX, COSX-SCS-MP3
   Christian Kollmar      : KDIIS, OOCD, Brueckner-CCSD(T), CCSD density
   Simone Kossmann        : Meta GGA functionals, TD-DFT gradient, OOMP2, MP2 Hessian
   Taras Petrenko         : DFT Hessian,TD-DFT gradient, ASA and ECA modules, normal mode analysis, Resonance Raman, ABS, FL, XAS/XES, NRVS
   Christoph Reimann      : Effective Core Potentials
   Michael Roemelt        : Restricted open shell CIS
   Christoph Riplinger    : Improved optimizer, TS searches, QM/MM, DLPNO-CCSD
   Barbara Sandhoefer     : DKH picture change effects
   Igor Schapiro          : Molecular dynamics
   Kantharuban Sivalingam : CASSCF convergence, NEVPT2
   Boris Wezisla          : Elementary symmetry handling
   Frank Wennmohs         : Technical directorship


 We gratefully acknowledge several colleagues who have allowed us to
 interface, adapt or use parts of their codes:
   Stefan Grimme, W. Hujo, H. Kruse, T. Risthaus : VdW corrections, initial TS optimization,
                                                   DFT functionals, gCP
   Ed Valeev                                     : LibInt (2-el integral package), F12 methods
   Garnet Chan, S. Sharma, R. Olivares           : DMRG
   Ulf Ekstrom                                   : XCFun DFT Library
   Mihaly Kallay                                 : mrcc  (arbitrary order and MRCC methods)
   Andreas Klamt, Michael Diedenhofen            : otool_cosmo (COSMO solvation model)
   Frank Weinhold                                : gennbo (NPA and NBO analysis)
   Christopher J. Cramer and Donald G. Truhlar   : smd solvation model


 Your calculation uses the libint2 library for the computation of 2-el integrals
 For citations please refer to: http://libint.valeyev.net

 This ORCA versions uses:
   CBLAS   interface :  Fast vector & matrix operations
   LAPACKE interface :  Fast linear algebra routines


Your calculation utilizes the basis: Ahlrichs-VDZ
Cite in your paper:
H - Kr: A. Schaefer, H. Horn and R. Ahlrichs, J. Chem. Phys. 97, 2571 (1992).

Your calculation utilizes the basis: Ahlrichs SVPalls1+f
Cite in your paper:
Rb - Xe: A. Schaefer, C. Huber and R. Ahlrichs, J. Chem. Phys. 100, 5829 (1994).

Your calculation utilizes diff. fcns from basis: 6-311++G(2d,2p)
Cite in your paper:
H, Li - Ne: R. Krishnan, J.S. Binkley, R. Seeger and J.A. Pople,
            J. Chem. Phys. 72, 650 (1980)
Na - Ar:    A.D. McLean and G.S. Chandler J. Chem. Phys. 72, 5639, (1980).
K  - Ca:    J-P. Blaudeau, M. P. McGrath, L.A. Curtiss and L. Radom,
            J. Chem. Phys. 107, 5016 (1997).
Ga - Kr:    L. A. Curtiss, M. P. McGrath, J-P. Blandeau, N. E. Davis,
            R. C. Binning, Jr. L. Radom, J. Chem. Phys. 103, 6104 (1995).
H - Ar:  R. Krishnan, J.S. Binkley, R. Seeger, J.A. Pople, J. Chem. Phys. 72,650 (1980)
H, Li-Cl: T. Clark, J. Chandrasekhar, P.V.R. Schleyer, J. Comp. Chem. 4, 294 (1983)

Your calculation utilizes pol. fcns from basis: Ahlrichs polarization
Cite in your paper:
H - Kr: R. Ahlrichs and coworkers, unpublished

Your calculation utilizes the basis: Ahlrichs-VDZ
Cite in your paper:
H - Kr: A. Schaefer, H. Horn and R. Ahlrichs, J. Chem. Phys. 97, 2571 (1992).

Your calculation utilizes the basis: Ahlrichs SVPalls1+f
Cite in your paper:
Rb - Xe: A. Schaefer, C. Huber and R. Ahlrichs, J. Chem. Phys. 100, 5829 (1994).

Your calculation utilizes diff. fcns from basis: 6-311++G(2d,2p)
Cite in your paper:
H, Li - Ne: R. Krishnan, J.S. Binkley, R. Seeger and J.A. Pople,
            J. Chem. Phys. 72, 650 (1980)
Na - Ar:    A.D. McLean and G.S. Chandler J. Chem. Phys. 72, 5639, (1980).
K  - Ca:    J-P. Blaudeau, M. P. McGrath, L.A. Curtiss and L. Radom,
            J. Chem. Phys. 107, 5016 (1997).
Ga - Kr:    L. A. Curtiss, M. P. McGrath, J-P. Blandeau, N. E. Davis,
            R. C. Binning, Jr. L. Radom, J. Chem. Phys. 103, 6104 (1995).
H - Ar:  R. Krishnan, J.S. Binkley, R. Seeger, J.A. Pople, J. Chem. Phys. 72,650 (1980)
H, Li-Cl: T. Clark, J. Chandrasekhar, P.V.R. Schleyer, J. Comp. Chem. 4, 294 (1983)

Your calculation utilizes pol. fcns from basis: Ahlrichs polarization
Cite in your paper:
H - Kr: R. Ahlrichs and coworkers, unpublished


AutoBuild AuxBasis requested
done building the auxiliary basis


*****************************************
The coordinations will be read from file: guess.xyz
*****************************************


================================================================================
                                        WARNINGS
                       Please study these warnings very carefully!
================================================================================
Now building the actual basis set
INFO   : Checking CIS options ...


INFO   : the flag for use of LIBINT has been found!

================================================================================
                                       INPUT FILE
================================================================================
NAME = C:\Users\Jan\Documents\lib\ORCAunleashed\output\job_11_04_2018_j7\job_11_04_2018_j7.in
|  1> ! RKS BP86 RI SV(P)+  TightScf  cosmo(Acetonitrile) 
|  2> %basis Aux  Auto end
|  3> %tddft
|  4> 	mode riints
|  5> 	NRoots 10
|  6> 	MaxDim 200
|  7> 	triplets false
|  8> end
|  9> 
| 10> *xyzfile 0 1 guess.xyz
| 11> 
| 12> 
| 13> 
| 14>                          ****END OF INPUT****
================================================================================

                       ****************************
                       * Single Point Calculation *
                       ****************************

---------------------------------
CARTESIAN COORDINATES (ANGSTROEM)
---------------------------------
  C      7.749720    1.705220   -1.920850
  C      7.578800    2.515940   -3.068700
  C      8.689560    3.063970   -3.719900
  C      9.978880    2.817140   -3.245200
  N     11.099940    3.301080   -3.972960
  N     12.248410    3.040930   -3.567970
  C     13.427050    3.317680   -4.297280
  C     14.626220    2.952830   -3.700800
  C     15.822550    3.143130   -4.357600
  C     15.865400    3.698700   -5.631380
  C     14.664480    4.084600   -6.265740
  C     13.435650    3.892390   -5.590820
  C     10.147720    2.035840   -2.083040
  C      9.042530    1.488030   -1.433290
  H      6.607090    2.710680   -3.490140
  H      8.547690    3.658750   -4.612820
  H     14.629820    2.504640   -2.715700
  H     16.744140    2.844640   -3.873660
  H     14.670790    4.520380   -7.257170
  H     12.507170    4.176510   -6.071710
  H     11.136320    1.825280   -1.693040
  H      9.194520    0.867610   -0.557730
  N      6.668800    1.044510   -1.261920
  N     17.159010    3.827370   -6.182280
  C      4.402290    0.331460   -0.872400
  C      4.762800   -0.610630    0.111070
  C      3.781140   -1.397550    0.722820
  C      2.439150   -1.251020    0.361700
  C      2.074960   -0.317340   -0.611470
  C      3.051170    0.470360   -1.227540
  H      1.035860   -0.205900   -0.892450
  H      2.755670    1.185800   -1.985290
  H      4.061350   -2.124330    1.474470
  H      1.681430   -1.862520    0.834040
  H      5.798450   -0.743150    0.398590
  C     19.075320    4.185660   -7.498930
  C     19.883310    3.798900   -6.403160
  C     21.268230    3.768210   -6.510940
  C     21.879390    4.119550   -7.710650
  C     21.099260    4.503070   -8.808650
  C     19.697390    4.538150   -8.708050
  H     19.108240    4.835900   -9.565770
  H     22.958510    4.093060   -7.785790
  H     21.585430    4.772690   -9.736310
  H     19.440950    3.519080   -5.454840
  H     21.864040    3.470100   -5.657020
  C      5.418290    1.158450   -1.559730
  C     17.595910    4.202530   -7.329460
  H     16.924990    4.499860   -8.132030
  H      5.083440    1.824890   -2.342070

----------------------------
CARTESIAN COORDINATES (A.U.)
----------------------------
  NO LB      ZA    FRAG    MASS        X           Y           Z
   0 C     6.0000    0    12.011         14.644848414572202          3.222398798085197         -3.629880444342636
   1 C     6.0000    0    12.011         14.321856423762382          4.754437569377834         -5.799002587164146
   2 C     6.0000    0    12.011         16.420888624276753          5.790064182550697         -7.029592245573664
   3 C     6.0000    0    12.011         18.857350323264100          5.323623080914915         -6.132539249801246
   4 N     7.0000    0    14.007         20.975846702957860          6.238137146164765         -7.507806341023776
   5 N     7.0000    0    14.007         23.146140475982399          5.746524892425152         -6.742486154047009
   6 C     6.0000    0    12.011         25.373447286467343          6.269506599987858         -8.120682320777116
   7 C     6.0000    0    12.011         27.639550174481691          5.580040020026690         -6.993498476415768
   8 C     6.0000    0    12.011         29.900286240275701          5.939654903311904         -8.234670601175246
   9 C     6.0000    0    12.011         29.981261005114224          6.989530051534533        -10.641765956041459
  10 C     6.0000    0    12.011         27.711851096365514          7.718775366614745        -11.840532626355744
  11 C     6.0000    0    12.011         25.389698931219066          7.355551106413740        -10.565118664049612
  12 C     6.0000    0    12.011         19.176411683715362          3.847180052482241         -3.936375126003324
  13 C     6.0000    0    12.011         17.087905257766934          2.811969179058840         -2.708525570487991
  14 H     1.0000    0     1.008         12.485590642169763          5.122442836697658         -6.595408769043917
  15 H     1.0000    0     1.008         16.152793177657344          6.914035492484380         -8.716966505074629
  16 H     1.0000    0     1.008         27.646353188563808          4.733083664064524         -5.131929261889943
  17 H     1.0000    0     1.008         31.641838948036188          5.375590549597749         -7.320156535925396
  18 H     1.0000    0     1.008         27.723775268270561          8.542280221254949        -13.714063807309291
  19 H     1.0000    0     1.008         23.635126010395862          7.892460095583448        -11.473869064591003
  20 H     1.0000    0     1.008         21.044594939709913          3.449279317723782         -3.199381933774036
  21 H     1.0000    0     1.008         17.375124732861629          1.639545291051417         -1.053956956671900
  22 N     7.0000    0    14.007         12.602205641894043          1.973837844142087         -2.384683202917906
  23 N     7.0000    0    14.007         32.425829629216096          7.232681113186182        -11.682816083218677
  24 C     6.0000    0    12.011          8.319122462100186          0.626368624349538         -1.648597079232900
  25 C     6.0000    0    12.011          9.000387630640137         -1.153923469156334          0.209891881694633
  26 C     6.0000    0    12.011          7.145319074015002         -2.640986758461645          1.365931844120959
  27 C     6.0000    0    12.011          4.609325499554021         -2.364085188058164          0.683513942639317
  28 C     6.0000    0    12.011          3.921106138841240         -0.599685691338570         -1.155510839108828
  29 C     6.0000    0    12.011          5.765875688036505          0.888851584351200         -2.319714418433693
  30 H     1.0000    0     1.008          1.957491713083668         -0.389094610974386         -1.686486088218021
  31 H     1.0000    0     1.008          5.207461615462775          2.240837249603820         -3.751654396412522
  32 H     1.0000    0     1.008          7.674839234001076         -4.014401918072933          2.786344492682868
  33 H     1.0000    0     1.008          3.177442213359210         -3.519652718951010          1.576107184735681
  34 H     1.0000    0     1.008         10.957482501235681         -1.404349976423578          0.753225939719672
  35 C     6.0000    0    12.011         36.047130716910736          7.909751089708827        -14.170923997446090
  36 C     6.0000    0    12.011         37.574010535857767          7.178880610153443        -12.100218791679202
  37 C     6.0000    0    12.011         40.191130053247981          7.120884915103400        -12.303893474393234
  38 C     6.0000    0    12.011         41.346055077255293          7.784821294995293        -14.571016814519899
  39 C     6.0000    0    12.011         39.871823028399312          8.509569061876771        -16.645936109565433
  40 C     6.0000    0    12.011         37.222672653039119          8.575860654654727        -16.455829660492956
  41 H     1.0000    0     1.008         36.109340501239416          9.138526611029780        -18.076685560079891
  42 H     1.0000    0     1.008         43.385296342892396          7.734762449707719        -14.713010836222743
  43 H     1.0000    0     1.008         40.790551182927800          9.019077022104618        -18.398959454958820
  44 H     1.0000    0     1.008         36.738071283256360          6.650097443359599        -10.308153704359000
  45 H     1.0000    0     1.008         41.317047781099603          6.557538657320135        -10.690218534115200
  46 C     6.0000    0    12.011         10.239084214164178          2.189153239841074         -2.947462542860994
  47 C     6.0000    0    12.011         33.251450977126289          7.941630769588079        -13.850672109530457
  48 H     1.0000    0     1.008         31.983595919355846          8.503503040986884        -15.367309612831637
  49 H     1.0000    0     1.008          9.606309418220649          3.448542324531553         -4.425870886472946

--------------------------------
INTERNAL COORDINATES (ANGSTROEM)
--------------------------------
 C      0   0   0   0.000000     0.000     0.000
 C      1   0   0   1.415641     0.000     0.000
 C      2   1   0   1.399352   120.383     0.000
 C      3   2   1   1.395927   120.374     0.000
 N      4   3   2   1.421481   119.612   175.492
 N      5   4   3   1.245262   119.323   182.305
 C      6   5   4   1.413392   124.081   171.439
 C      7   6   5   1.388133   116.564   180.448
 C      8   7   6   1.377972   120.590   177.815
 C      9   8   7   1.390327   121.240   359.788
 C     10   9   8   1.411928   119.645     0.389
 C     11  10   9   1.415092   119.156   359.762
 C      4   3   2   1.410515   119.254   358.479
 C     13   4   3   1.394172   120.447     1.571
 H      2   1   3   1.076920   121.993   178.136
 H      3   2   1   1.082218   119.679   178.258
 H      8   7   6   1.082270   120.188   358.470
 H      9   8   7   1.082877   119.196   180.375
 H     11  10   9   1.082995   121.086   179.947
 H     12  11  10   1.083538   119.790   180.555
 H     13   4   3   1.083405   120.895   179.818
 H     14  13   4   1.083802   119.358   178.299
 N      1   2   3   1.427976   123.212   184.257
 N     10   9   8   1.411904   114.969   180.294
 C     23   1   2   2.407745   157.553     2.638
 C     25  23   1   1.408799    94.019   168.361
 C     26  25  23   1.398977   120.123   181.020
 C     27  26  25   1.397432   120.124   359.930
 C     28  27  26   1.396944   120.031     0.000
 C     29  28  27   1.397498   120.114     0.108
 H     29  28  27   1.082173   120.002   179.855
 H     30  29  28   1.083217   119.347   179.594
 H     27  26  25   1.082453   119.978   179.680
 H     28  27  26   1.082209   120.023   179.832
 H     26  25  23   1.082959   120.790     0.503
 C     24  10   9   2.352484   168.125   174.361
 C     36  24  10   1.415324    89.433   179.417
 C     37  36  24   1.389447   120.998   179.326
 C     38  37  36   1.391496   119.939   359.914
 C     39  38  37   1.400462   120.030   359.967
 C     36  24  10   1.404703   151.729   357.904
 H     41  36  24   1.082329   120.671     1.558
 H     39  38  37   1.082057   119.453   179.987
 H     40  39  38   1.081485   119.365   180.082
 H     37  36  24   1.083186   121.016   359.249
 H     38  37  36   1.083069   119.554   179.902
 C     23   1   2   1.290523   125.885   355.461
 C     24  10   9   1.283608   133.409   174.928
 H     48  24  10   1.087501   121.970   359.324
 H     47  23   1   1.080890   121.443   357.432

---------------------------
INTERNAL COORDINATES (A.U.)
---------------------------
 C      0   0   0   0.000000     0.000     0.000
 C      1   0   0   2.675174     0.000     0.000
 C      2   1   0   2.644392   120.383     0.000
 C      3   2   1   2.637919   120.374     0.000
 N      4   3   2   2.686210   119.612   175.492
 N      5   4   3   2.353205   119.323   182.305
 C      6   5   4   2.670923   124.081   171.439
 C      7   6   5   2.623191   116.564   180.448
 C      8   7   6   2.603989   120.590   177.815
 C      9   8   7   2.627338   121.240   359.788
 C     10   9   8   2.668157   119.645     0.389
 C     11  10   9   2.674136   119.156   359.762
 C      4   3   2   2.665487   119.254   358.479
 C     13   4   3   2.634603   120.447     1.571
 H      2   1   3   2.035083   121.993   178.136
 H      3   2   1   2.045096   119.679   178.258
 H      8   7   6   2.045195   120.188   358.470
 H      9   8   7   2.046341   119.196   180.375
 H     11  10   9   2.046563   121.086   179.947
 H     12  11  10   2.047590   119.790   180.555
 H     13   4   3   2.047338   120.895   179.818
 H     14  13   4   2.048089   119.358   178.299
 N      1   2   3   2.698483   123.212   184.257
 N     10   9   8   2.668112   114.969   180.294
 C     23   1   2   4.549978   157.553     2.638
 C     25  23   1   2.662244    94.019   168.361
 C     26  25  23   2.643684   120.123   181.020
 C     27  26  25   2.640764   120.124   359.930
 C     28  27  26   2.639842   120.031     0.000
 C     29  28  27   2.640888   120.114     0.108
 H     29  28  27   2.045010   120.002   179.855
 H     30  29  28   2.046984   119.347   179.594
 H     27  26  25   2.045540   119.978   179.680
 H     28  27  26   2.045079   120.023   179.832
 H     26  25  23   2.046496   120.790     0.503
 C     24  10   9   4.445551   168.125   174.361
 C     36  24  10   2.674575    89.433   179.417
 C     37  36  24   2.625674   120.998   179.326
 C     38  37  36   2.629546   119.939   359.914
 C     39  38  37   2.646490   120.030   359.967
 C     36  24  10   2.654505   151.729   357.904
 H     41  36  24   2.045306   120.671     1.558
 H     39  38  37   2.044792   119.453   179.987
 H     40  39  38   2.043710   119.365   180.082
 H     37  36  24   2.046925   121.016   359.249
 H     38  37  36   2.046704   119.554   179.902
 C     23   1   2   2.438734   125.885   355.461
 C     24  10   9   2.425667   133.409   174.928
 H     48  24  10   2.055078   121.970   359.324
 H     47  23   1   2.042586   121.443   357.432

---------------------
BASIS SET INFORMATION
---------------------
There are 3 groups of distinct atoms

 Group   1 Type C   : 8s5p1d contracted to 4s3p1d pattern {5111/311/1}
 Group   2 Type N   : 8s5p1d contracted to 4s3p1d pattern {5111/311/1}
 Group   3 Type H   : 4s contracted to 2s pattern {31}

Atom   0C    basis set group =>   1
Atom   1C    basis set group =>   1
Atom   2C    basis set group =>   1
Atom   3C    basis set group =>   1
Atom   4N    basis set group =>   2
Atom   5N    basis set group =>   2
Atom   6C    basis set group =>   1
Atom   7C    basis set group =>   1
Atom   8C    basis set group =>   1
Atom   9C    basis set group =>   1
Atom  10C    basis set group =>   1
Atom  11C    basis set group =>   1
Atom  12C    basis set group =>   1
Atom  13C    basis set group =>   1
Atom  14H    basis set group =>   3
Atom  15H    basis set group =>   3
Atom  16H    basis set group =>   3
Atom  17H    basis set group =>   3
Atom  18H    basis set group =>   3
Atom  19H    basis set group =>   3
Atom  20H    basis set group =>   3
Atom  21H    basis set group =>   3
Atom  22N    basis set group =>   2
Atom  23N    basis set group =>   2
Atom  24C    basis set group =>   1
Atom  25C    basis set group =>   1
Atom  26C    basis set group =>   1
Atom  27C    basis set group =>   1
Atom  28C    basis set group =>   1
Atom  29C    basis set group =>   1
Atom  30H    basis set group =>   3
Atom  31H    basis set group =>   3
Atom  32H    basis set group =>   3
Atom  33H    basis set group =>   3
Atom  34H    basis set group =>   3
Atom  35C    basis set group =>   1
Atom  36C    basis set group =>   1
Atom  37C    basis set group =>   1
Atom  38C    basis set group =>   1
Atom  39C    basis set group =>   1
Atom  40C    basis set group =>   1
Atom  41H    basis set group =>   3
Atom  42H    basis set group =>   3
Atom  43H    basis set group =>   3
Atom  44H    basis set group =>   3
Atom  45H    basis set group =>   3
Atom  46C    basis set group =>   1
Atom  47C    basis set group =>   1
Atom  48H    basis set group =>   3
Atom  49H    basis set group =>   3
-------------------------------
AUXILIARY BASIS SET INFORMATION
-------------------------------
There are 3 groups of distinct atoms

 Group   1 Type C   : 16s8p4d2f contracted to 16s8p4d2f pattern {1111111111111111/11111111/1111/11}
 Group   2 Type N   : 16s8p4d2f contracted to 16s8p4d2f pattern {1111111111111111/11111111/1111/11}
 Group   3 Type H   : 8s2p contracted to 8s2p pattern {11111111/11}

Atom   0C    basis set group =>   1
Atom   1C    basis set group =>   1
Atom   2C    basis set group =>   1
Atom   3C    basis set group =>   1
Atom   4N    basis set group =>   2
Atom   5N    basis set group =>   2
Atom   6C    basis set group =>   1
Atom   7C    basis set group =>   1
Atom   8C    basis set group =>   1
Atom   9C    basis set group =>   1
Atom  10C    basis set group =>   1
Atom  11C    basis set group =>   1
Atom  12C    basis set group =>   1
Atom  13C    basis set group =>   1
Atom  14H    basis set group =>   3
Atom  15H    basis set group =>   3
Atom  16H    basis set group =>   3
Atom  17H    basis set group =>   3
Atom  18H    basis set group =>   3
Atom  19H    basis set group =>   3
Atom  20H    basis set group =>   3
Atom  21H    basis set group =>   3
Atom  22N    basis set group =>   2
Atom  23N    basis set group =>   2
Atom  24C    basis set group =>   1
Atom  25C    basis set group =>   1
Atom  26C    basis set group =>   1
Atom  27C    basis set group =>   1
Atom  28C    basis set group =>   1
Atom  29C    basis set group =>   1
Atom  30H    basis set group =>   3
Atom  31H    basis set group =>   3
Atom  32H    basis set group =>   3
Atom  33H    basis set group =>   3
Atom  34H    basis set group =>   3
Atom  35C    basis set group =>   1
Atom  36C    basis set group =>   1
Atom  37C    basis set group =>   1
Atom  38C    basis set group =>   1
Atom  39C    basis set group =>   1
Atom  40C    basis set group =>   1
Atom  41H    basis set group =>   3
Atom  42H    basis set group =>   3
Atom  43H    basis set group =>   3
Atom  44H    basis set group =>   3
Atom  45H    basis set group =>   3
Atom  46C    basis set group =>   1
Atom  47C    basis set group =>   1
Atom  48H    basis set group =>   3
Atom  49H    basis set group =>   3
------------------------------------------------------------------------------
                           ORCA GTO INTEGRAL CALCULATION
                           -- RI-GTO INTEGRALS CHOSEN --
------------------------------------------------------------------------------

                         BASIS SET STATISTICS AND STARTUP INFO

Gaussian basis set:
 # of primitive gaussian shells          ...  500
 # of primitive gaussian functions       ...  920
 # of contracted shells                  ...  280
 # of contracted basis functions         ...  580
 Highest angular momentum                ...    2
 Maximum contraction depth               ...    5
Auxiliary gaussian basis set:
 # of primitive gaussian shells          ... 1100
 # of primitive gaussian functions       ... 2500
 # of contracted shells                  ... 1100
 # of contracted aux-basis functions     ... 2500
 Highest angular momentum                ...    3
 Maximum contraction depth               ...    1
Ratio of auxiliary to basis functions    ...  4.31
Integral package used                  ... LIBINT
 One Electron integrals                  ... done
 Ordering auxiliary basis shells         ... done
 Integral threshhold             Thresh  ... 2.500e-011
 Primitive cut-off               TCut    ... 2.500e-012
 Pre-screening matrix                    ... done
 Shell pair data                         ... 
 Ordering of the shell pairs             ... done (   0.000 sec) 24253 of 39340 pairs
 Determination of significant pairs      ... done (   0.000 sec)
 Creation of shell pair data             ... done (   0.000 sec)
 Storage of shell pair data              ... done (   0.032 sec)
 Shell pair data done in (   0.032 sec)
 Computing two index integrals           ... done
 Cholesky decomposition of the V-matrix  ... done


Timings:
 Total evaluation time                   ...   2.172 sec (  0.036 min)
 One electron matrix time                ...   0.344 sec (  0.006 min) = 15.8%
 Schwartz matrix evaluation time         ...   0.281 sec (  0.005 min) = 12.9%
 Two index repulsion integral time       ...   0.609 sec (  0.010 min) = 28.0%
 Cholesky decomposition of V             ...   0.875 sec (  0.015 min) = 40.3%

-------------------------------------------------------------------------------
                                 ORCA SCF
-------------------------------------------------------------------------------

------------
SCF SETTINGS
------------
Hamiltonian:
 Density Functional     Method          .... DFT(GTOs)
 Exchange Functional    Exchange        .... B88
   X-Alpha parameter    XAlpha          ....  0.666667
   Becke's b parameter  XBeta           ....  0.004200
 Correlation Functional Correlation     .... P86
 LDA part of GGA corr.  LDAOpt          .... PW91-LDA
 Gradients option       PostSCFGGA      .... off
 RI-approximation to the Coulomb term is turned on
   Number of auxiliary basis functions  .... 2500


General Settings:
 Integral files         IntName         .... C:\Users\Jan\Documents\lib\ORCAunleashed\output\job_11_04_2018_j7\job_11_04_2018_j7
 Hartree-Fock type      HFTyp           .... RHF
 Total Charge           Charge          ....    0
 Multiplicity           Mult            ....    1
 Number of Electrons    NEL             ....  204
 Basis Dimension        Dim             ....  580
 Nuclear Repulsion      ENuc            ....   2186.6845320577 Eh

Convergence Acceleration:
 DIIS                   CNVDIIS         .... on
   Start iteration      DIISMaxIt       ....    12
   Startup error        DIISStart       ....  0.200000
   # of expansion vecs  DIISMaxEq       ....     5
   Bias factor          DIISBfac        ....   1.050
   Max. coefficient     DIISMaxC        ....  10.000
 Newton-Raphson         CNVNR           .... off
 SOSCF                  CNVSOSCF        .... on
   Start iteration      SOSCFMaxIt      ....   150
   Startup grad/error   SOSCFStart      ....  0.003300
 Level Shifting         CNVShift        .... on
   Level shift para.    LevelShift      ....    0.2500
   Turn off err/grad.   ShiftErr        ....    0.0010
 Zerner damping         CNVZerner       .... off
 Static damping         CNVDamp         .... on
   Fraction old density DampFac         ....    0.7000
   Max. Damping (<1)    DampMax         ....    0.9800
   Min. Damping (>=0)   DampMin         ....    0.0000
   Turn off err/grad.   DampErr         ....    0.1000
 Fernandez-Rico         CNVRico         .... off

SCF Procedure:
 Maximum # iterations   MaxIter         ....   125
 SCF integral mode      SCFMode         .... Direct
   Integral package                     .... LIBINT
 Reset frequeny         DirectResetFreq ....    20
 Integral Threshold     Thresh          .... 2.500e-011 Eh
 Primitive CutOff       TCut            .... 2.500e-012 Eh

Convergence Tolerance:
 Convergence Check Mode ConvCheckMode   .... Total+1el-Energy
 Energy Change          TolE            .... 1.000e-008 Eh
 1-El. energy change                    .... 1.000e-005 Eh
 Orbital Gradient       TolG            .... 1.000e-005
 Orbital Rotation angle TolX            .... 1.000e-005
 DIIS Error             TolErr          .... 5.000e-007


Diagonalization of the overlap matrix:
Smallest eigenvalue                        ... 3.169e-007
Time for diagonalization                   ...    0.109 sec
Threshold for overlap eigenvalues          ... 1.000e-008
Number of eigenvalues below threshold      ... 0
Time for construction of square roots      ...    0.078 sec
Total time needed                          ...    0.187 sec

-------------------
DFT GRID GENERATION
-------------------

General Integration Accuracy     IntAcc      ...  4.340
Radial Grid Type                 RadialGrid  ... Gauss-Chebyshev
Angular Grid (max. acc.)         AngularGrid ... Lebedev-110
Angular grid pruning method      GridPruning ... 3 (G Style)
Weight generation scheme         WeightScheme... Becke
Basis function cutoff            BFCut       ...   1.0000e-011
Integration weight cutoff        WCut        ...   1.0000e-014
Grids for H and He will be reduced by one unit

# of grid points (after initial pruning)     ...  65744 (   0.1 sec)
# of grid points (after weights+screening)   ...  59656 (   1.0 sec)
nearest neighbour list constructed           ...    0.0 sec
Grid point re-assignment to atoms done       ...    0.0 sec
Grid point division into batches done        ...    0.1 sec
Reduced shell lists constructed in    1.3 sec

Total number of grid points                  ...    59656
Total number of batches                      ...      957
Average number of points per batch           ...       62
Average number of grid points per atom       ...     1193
Average number of shells per batch           ...   115.15 (41.13%)
Average number of basis functions per batch  ...   232.72 (40.12%)
Average number of large shells per batch     ...    82.77 (71.88%)
Average number of large basis fcns per batch ...   169.40 (72.79%)
Maximum spatial batch extension              ...  19.30, 21.52, 20.77 au
Average spatial batch extension              ...   3.05,  4.44,  3.88 au

Time for grid setup =    2.406 sec

------------------------------
INITIAL GUESS: MODEL POTENTIAL
------------------------------
Loading Hartree-Fock densities                     ... done
Calculating cut-offs                               ... done
Setting up the integral package                    ... done
Initializing the effective Hamiltonian             ... done
Starting the Coulomb interaction                   ... done (   3.1 sec)
Reading the grid                                   ... done
Mapping shells                                     ... done
Starting the XC term evaluation                    ... done (   2.6 sec)
  promolecular density results
     # of electrons  =    203.983913676
     EX              =   -165.817514668
     EC              =     -7.418367172
     EX+EC           =   -173.235881840
Transforming the Hamiltonian                       ... done (   0.0 sec)
Diagonalizing the Hamiltonian                      ... done (   0.1 sec)
Back transforming the eigenvectors                 ... done (   0.0 sec)
Now organizing SCF variables                       ... done
                      ------------------
                      INITIAL GUESS DONE (   8.5 sec)
                      ------------------

--------------------
COSMO INITIALIZATION
--------------------

Epsilon                                      ...   36.6000
Refractive Index                             ...    1.3440
Potential Evaluation                         ...  ANALYTIC
Technical COSMO parameters:
  rsolv                                      ...    1.3000
  routf                                      ...    0.8500
  disex                                      ...   10.0000
  nppa                                       ... 1082   
  nspa                                       ...   92   
Radii:
 Radius for C  used is    3.7795 Bohr (=   2.0000 Ang.)
 Radius for N  used is    3.4582 Bohr (=   1.8300 Ang.)
 Radius for H  used is    2.4566 Bohr (=   1.3000 Ang.)
Initializing COSMO package            ... done
Setting COSMO radii                   ... done
Setting atoms and making cavity       ...  USING 1082 GRID
done
Cholesky decomposition of A           ... done
--------------
SCF ITERATIONS
--------------
ITER       Energy         Delta-E        Max-DP      RMS-DP      [F,P]     Damp
               ***  Starting incremental Fock matrix formation  ***
  0  -1220.4656576349   0.000000000000 6.68772207  0.04016146  0.1561687 0.7000
  1  -1220.6577117456  -0.192054110717 5.40805982  0.03163893  0.0645948 0.7000
                               ***Turning on DIIS***
  2  -1220.7348706760  -0.07715893035612.76375360  0.06870277  0.0206806 0.0000
  3  -1220.8425935561  -0.107722880122 2.99691024  0.01799111  0.0351738 0.0000
  4  -1220.8751743356  -0.032580779542 1.09013034  0.00695286  0.0131923 0.0000
  5  -1220.8771087435  -0.001934407819 0.27858677  0.00219925  0.0049906 0.0000
                      *** Initiating the SOSCF procedure ***
                           *** Shutting down DIIS ***
                      *** Re-Reading the Fockian *** 
                      *** Removing any level shift *** 
ITER      Energy       Delta-E        Grad      Rot      Max-DP    RMS-DP
  6  -1220.87726567  -0.0001569289  0.000268  0.000268  0.127200  0.000955
               *** Restarting incremental Fock matrix formation ***
  7  -1220.87727986  -0.0000141925  0.000199  0.002176  0.423701  0.002713
  8  -1220.87727777   0.0000020950  0.000311  0.000667  0.597245  0.003401
  9  -1220.87728390  -0.0000061340  0.000071  0.000362  0.236243  0.001724
 10  -1220.87728358   0.0000003207  0.000077  0.000210  0.490762  0.002641
 11  -1220.87728429  -0.0000007105  0.000022  0.000145  0.406345  0.002426
 12  -1220.87728420   0.0000000899  0.000037  0.000046  0.266686  0.001583
 13  -1220.87728432  -0.0000001163  0.000008  0.000108  0.160688  0.001338
 14  -1220.87728430   0.0000000168  0.000011  0.000048  0.050702  0.000468
 15  -1220.87728433  -0.0000000276  0.000004  0.000030  0.263954  0.002117
 16  -1220.87728433  -0.0000000035  0.000006  0.000012  0.165925  0.001302
 17  -1220.87728433   0.0000000034  0.000005  0.000020  0.179643  0.001105
                  ***Gradient check signals convergence***
              ***Rediagonalizing the Fockian in SOSCF/NRSCF***

               *****************************************************
               *                     SUCCESS                       *
               *           SCF CONVERGED AFTER  18 CYCLES          *
               *****************************************************

Setting up the final grid:

General Integration Accuracy     IntAcc      ...  4.670
Radial Grid Type                 RadialGrid  ... Gauss-Chebyshev
Angular Grid (max. acc.)         AngularGrid ... Lebedev-302
Angular grid pruning method      GridPruning ... 3 (G Style)
Weight generation scheme         WeightScheme... Becke
Basis function cutoff            BFCut       ...   1.0000e-011
Integration weight cutoff        WCut        ...   1.0000e-014
Grids for H and He will be reduced by one unit

# of grid points (after initial pruning)     ... 254240 (   0.4 sec)
# of grid points (after weights+screening)   ... 226315 (   4.2 sec)
nearest neighbour list constructed           ...    0.0 sec
Grid point re-assignment to atoms done       ...    0.0 sec
Grid point division into batches done        ...    0.9 sec
Reduced shell lists constructed in    5.2 sec

Total number of grid points                  ...   226315
Total number of batches                      ...     3560
Average number of points per batch           ...       63
Average number of grid points per atom       ...     4526
Average number of shells per batch           ...   107.11 (38.25%)
Average number of basis functions per batch  ...   215.67 (37.18%)
Average number of large shells per batch     ...    76.31 (71.25%)
Average number of large basis fcns per batch ...   155.43 (72.07%)
Maximum spatial batch extension              ...  17.98, 22.14, 20.21 au
Average spatial batch extension              ...   2.13,  2.61,  2.44 au

Final grid set up in    9.9 sec
Final integration                            ... done (  13.6 sec)
Change in XC energy                          ...    -0.002044925
Integrated number of electrons               ...   204.000020352
Previous integrated no of electrons          ...   203.994596643
   7.31031764816534       0.211256883744410       -3.17584720821146     
  1.422284080390819E-004  0.232280418010336       6.123133807721698E-004
Total Energy after outlying charge correction =  -1220.879612450 Eh

----------------
TOTAL SCF ENERGY
----------------

Total Energy       :        -1220.87932926 Eh          -33221.81551 eV
Total Energy       :        -1220.87932926 Eh          -33221.81551 eV
COSMO(ediel)       :           -0.02333372 Eh              -0.63494 eV

Components:
Nuclear Repulsion  :         2186.68453206 Eh           59502.71118 eV
Electronic Energy  :        -3407.56386132 Eh          -92724.52669 eV

One Electron Energy:        -5994.21879326 Eh         -163110.98577 eV
Two Electron Energy:         2586.65493194 Eh           70386.45908 eV

Virial components:
Potential Energy   :        -2428.39365610 Eh          -66079.95082 eV
Kinetic Energy     :         1207.51432684 Eh           32858.13531 eV
Virial Ratio       :            2.01106819


DFT components:
N(Alpha)           :      102.000010175961 electrons
N(Beta)            :      102.000010175961 electrons
N(Total)           :      204.000020351921 electrons
E(X)               :     -168.359807790219 Eh       
E(C)               :       -7.425836466258 Eh       
E(XC)              :     -175.785644256477 Eh       

---------------
SCF CONVERGENCE
---------------

  Last Energy change         ...  -6.8185e-009  Tolerance :  1.0000e-008
  Last MAX-Density change    ...   1.6929e-001  Tolerance :  1.0000e-007
  Last RMS-Density change    ...   1.1184e-003  Tolerance :  5.0000e-009
  Last Orbital Gradient      ...   2.1124e-006  Tolerance :  1.0000e-005
  Last Orbital Rotation      ...   9.1756e-006  Tolerance :  1.0000e-005

             **** THE GBW FILE WAS UPDATED (C:\Users\Jan\Documents\lib\ORCAunleashed\output\job_11_04_2018_j7\job_11_04_2018_j7.gbw) ****
             **** DENSITY FILE WAS UPDATED (C:\Users\Jan\Documents\lib\ORCAunleashed\output\job_11_04_2018_j7\job_11_04_2018_j7.scfp.tmp) ****
             **** ENERGY FILE WAS UPDATED (C:\Users\Jan\Documents\lib\ORCAunleashed\output\job_11_04_2018_j7\job_11_04_2018_j7.en.tmp) ****
----------------
ORBITAL ENERGIES
----------------

  NO   OCC          E(Eh)            E(eV) 
   0   2.0000     -14.064987      -382.7277 
   1   2.0000     -14.061397      -382.6301 
   2   2.0000     -14.023194      -381.5905 
   3   2.0000     -14.016569      -381.4102 
   4   2.0000      -9.969390      -271.2809 
   5   2.0000      -9.968186      -271.2481 
   6   2.0000      -9.967368      -271.2259 
   7   2.0000      -9.966897      -271.2130 
   8   2.0000      -9.961419      -271.0640 
   9   2.0000      -9.959420      -271.0096 
  10   2.0000      -9.937843      -270.4225 
  11   2.0000      -9.936963      -270.3985 
  12   2.0000      -9.934034      -270.3188 
  13   2.0000      -9.932962      -270.2896 
  14   2.0000      -9.931925      -270.2614 
  15   2.0000      -9.929553      -270.1969 
  16   2.0000      -9.927599      -270.1437 
  17   2.0000      -9.927501      -270.1410 
  18   2.0000      -9.927343      -270.1367 
  19   2.0000      -9.926966      -270.1265 
  20   2.0000      -9.926750      -270.1206 
  21   2.0000      -9.925089      -270.0754 
  22   2.0000      -9.925033      -270.0739 
  23   2.0000      -9.923825      -270.0410 
  24   2.0000      -9.923437      -270.0305 
  25   2.0000      -9.923437      -270.0304 
  26   2.0000      -9.923161      -270.0229 
  27   2.0000      -9.923034      -270.0195 
  28   2.0000      -9.920060      -269.9386 
  29   2.0000      -9.919709      -269.9290 
  30   2.0000      -0.951608       -25.8946 
  31   2.0000      -0.853838       -23.2341 
  32   2.0000      -0.853270       -23.2186 
  33   2.0000      -0.801818       -21.8186 
  34   2.0000      -0.790352       -21.5066 
  35   2.0000      -0.783748       -21.3269 
  36   2.0000      -0.777083       -21.1455 
  37   2.0000      -0.733729       -19.9658 
  38   2.0000      -0.706250       -19.2180 
  39   2.0000      -0.691858       -18.8264 
  40   2.0000      -0.689217       -18.7545 
  41   2.0000      -0.688432       -18.7332 
  42   2.0000      -0.681945       -18.5567 
  43   2.0000      -0.679738       -18.4966 
  44   2.0000      -0.670237       -18.2381 
  45   2.0000      -0.634734       -17.2720 
  46   2.0000      -0.602377       -16.3915 
  47   2.0000      -0.577112       -15.7040 
  48   2.0000      -0.568263       -15.4632 
  49   2.0000      -0.566144       -15.4056 
  50   2.0000      -0.558179       -15.1888 
  51   2.0000      -0.553219       -15.0539 
  52   2.0000      -0.546457       -14.8698 
  53   2.0000      -0.529450       -14.4071 
  54   2.0000      -0.515587       -14.0298 
  55   2.0000      -0.514083       -13.9889 
  56   2.0000      -0.496908       -13.5216 
  57   2.0000      -0.479017       -13.0347 
  58   2.0000      -0.473838       -12.8938 
  59   2.0000      -0.470503       -12.8031 
  60   2.0000      -0.465148       -12.6573 
  61   2.0000      -0.443699       -12.0737 
  62   2.0000      -0.430969       -11.7273 
  63   2.0000      -0.418089       -11.3768 
  64   2.0000      -0.417333       -11.3562 
  65   2.0000      -0.408090       -11.1047 
  66   2.0000      -0.407157       -11.0793 
  67   2.0000      -0.405536       -11.0352 
  68   2.0000      -0.405049       -11.0219 
  69   2.0000      -0.402517       -10.9531 
  70   2.0000      -0.392498       -10.6804 
  71   2.0000      -0.391903       -10.6642 
  72   2.0000      -0.388869       -10.5817 
  73   2.0000      -0.385363       -10.4863 
  74   2.0000      -0.382866       -10.4183 
  75   2.0000      -0.382223       -10.4008 
  76   2.0000      -0.377800       -10.2805 
  77   2.0000      -0.373681       -10.1684 
  78   2.0000      -0.371509       -10.1093 
  79   2.0000      -0.356812        -9.7094 
  80   2.0000      -0.353592        -9.6217 
  81   2.0000      -0.346315        -9.4237 
  82   2.0000      -0.342336        -9.3154 
  83   2.0000      -0.325841        -8.8666 
  84   2.0000      -0.324898        -8.8409 
  85   2.0000      -0.319204        -8.6860 
  86   2.0000      -0.317715        -8.6455 
  87   2.0000      -0.315646        -8.5892 
  88   2.0000      -0.313144        -8.5211 
  89   2.0000      -0.310932        -8.4609 
  90   2.0000      -0.307510        -8.3678 
  91   2.0000      -0.270668        -7.3653 
  92   2.0000      -0.253930        -6.9098 
  93   2.0000      -0.249548        -6.7905 
  94   2.0000      -0.248346        -6.7578 
  95   2.0000      -0.244361        -6.6494 
  96   2.0000      -0.242601        -6.6015 
  97   2.0000      -0.228218        -6.2101 
  98   2.0000      -0.225052        -6.1240 
  99   2.0000      -0.213951        -5.8219 
 100   2.0000      -0.209296        -5.6952 
 101   2.0000      -0.185480        -5.0472 
 102   0.0000      -0.136617        -3.7175 
 103   0.0000      -0.105882        -2.8812 
 104   0.0000      -0.089745        -2.4421 
 105   0.0000      -0.059038        -1.6065 
 106   0.0000      -0.058242        -1.5849 
 107   0.0000      -0.054815        -1.4916 
 108   0.0000      -0.052419        -1.4264 
 109   0.0000      -0.037403        -1.0178 
 110   0.0000      -0.023444        -0.6380 
 111   0.0000       0.001329         0.0362 
 112   0.0000       0.004110         0.1119 
 113   0.0000       0.006518         0.1774 
 114   0.0000       0.011384         0.3098 
 115   0.0000       0.013999         0.3809 
 116   0.0000       0.016195         0.4407 
 117   0.0000       0.018160         0.4942 
 118   0.0000       0.020978         0.5708 
 119   0.0000       0.027977         0.7613 
 120   0.0000       0.031530         0.8580 
 121   0.0000       0.033066         0.8998 
 122   0.0000       0.036837         1.0024 
 123   0.0000       0.039647         1.0788 
 124   0.0000       0.040644         1.1060 
 125   0.0000       0.041966         1.1420 
 126   0.0000       0.043525         1.1844 
 127   0.0000       0.046616         1.2685 
 128   0.0000       0.047266         1.2862 
 129   0.0000       0.050828         1.3831 
 130   0.0000       0.052184         1.4200 
 131   0.0000       0.054362         1.4793 
 132   0.0000       0.060636         1.6500 
 133   0.0000       0.064379         1.7519 
 134   0.0000       0.068890         1.8746 
 135   0.0000       0.069667         1.8957 
 136   0.0000       0.074154         2.0178 
 137   0.0000       0.074395         2.0244 
 138   0.0000       0.078852         2.1457 
 139   0.0000       0.079296         2.1578 
 140   0.0000       0.083706         2.2778 
 141   0.0000       0.085889         2.3372 
 142   0.0000       0.086991         2.3671 
 143   0.0000       0.088816         2.4168 
 144   0.0000       0.093052         2.5321 
 145   0.0000       0.096236         2.6187 
 146   0.0000       0.099773         2.7150 
 147   0.0000       0.100690         2.7399 
 148   0.0000       0.104408         2.8411 
 149   0.0000       0.105983         2.8840 
 150   0.0000       0.109258         2.9731 
 151   0.0000       0.111137         3.0242 
 152   0.0000       0.111816         3.0427 
 153   0.0000       0.116783         3.1778 
 154   0.0000       0.118646         3.2285 
 155   0.0000       0.120604         3.2818 
 156   0.0000       0.123527         3.3613 
 157   0.0000       0.124986         3.4010 
 158   0.0000       0.128227         3.4892 
 159   0.0000       0.128313         3.4916 
 160   0.0000       0.129360         3.5201 
 161   0.0000       0.130806         3.5594 
 162   0.0000       0.132313         3.6004 
 163   0.0000       0.135004         3.6736 
 164   0.0000       0.135880         3.6975 
 165   0.0000       0.137736         3.7480 
 166   0.0000       0.139035         3.7833 
 167   0.0000       0.140536         3.8242 
 168   0.0000       0.143063         3.8929 
 169   0.0000       0.143922         3.9163 
 170   0.0000       0.147693         4.0189 
 171   0.0000       0.148261         4.0344 
 172   0.0000       0.152770         4.1571 
 173   0.0000       0.154737         4.2106 
 174   0.0000       0.156199         4.2504 
 175   0.0000       0.159328         4.3355 
 176   0.0000       0.161006         4.3812 
 177   0.0000       0.162390         4.4189 
 178   0.0000       0.166274         4.5246 
 179   0.0000       0.168731         4.5914 
 180   0.0000       0.170225         4.6321 
 181   0.0000       0.173651         4.7253 
 182   0.0000       0.174439         4.7467 
 183   0.0000       0.177967         4.8427 
 184   0.0000       0.178728         4.8634 
 185   0.0000       0.178990         4.8706 
 186   0.0000       0.180750         4.9185 
 187   0.0000       0.182931         4.9778 
 188   0.0000       0.184622         5.0238 
 189   0.0000       0.187016         5.0890 
 190   0.0000       0.189158         5.1472 
 191   0.0000       0.190390         5.1808 
 192   0.0000       0.192066         5.2264 
 193   0.0000       0.193861         5.2752 
 194   0.0000       0.197214         5.3665 
 195   0.0000       0.200590         5.4583 
 196   0.0000       0.201879         5.4934 
 197   0.0000       0.203014         5.5243 
 198   0.0000       0.204978         5.5777 
 199   0.0000       0.206869         5.6292 
 200   0.0000       0.208273         5.6674 
 201   0.0000       0.209844         5.7102 
 202   0.0000       0.213143         5.7999 
 203   0.0000       0.214784         5.8446 
 204   0.0000       0.217803         5.9267 
 205   0.0000       0.221180         6.0186 
 206   0.0000       0.222123         6.0443 
 207   0.0000       0.222624         6.0579 
 208   0.0000       0.225828         6.1451 
 209   0.0000       0.226155         6.1540 
 210   0.0000       0.228736         6.2242 
 211   0.0000       0.230295         6.2667 
 212   0.0000       0.231703         6.3050 
 213   0.0000       0.233606         6.3567 
 214   0.0000       0.234878         6.3913 
 215   0.0000       0.237142         6.4530 
 216   0.0000       0.237866         6.4727 
 217   0.0000       0.239899         6.5280 
 218   0.0000       0.240658         6.5486 
 219   0.0000       0.245165         6.6713 
 220   0.0000       0.247271         6.7286 
 221   0.0000       0.248542         6.7632 
 222   0.0000       0.249949         6.8015 
 223   0.0000       0.252039         6.8583 
 224   0.0000       0.254373         6.9218 
 225   0.0000       0.255386         6.9494 
 226   0.0000       0.260107         7.0779 
 227   0.0000       0.262068         7.1312 
 228   0.0000       0.263718         7.1761 
 229   0.0000       0.267570         7.2809 
 230   0.0000       0.271776         7.3954 
 231   0.0000       0.272891         7.4257 
 232   0.0000       0.274840         7.4788 
 233   0.0000       0.275336         7.4923 
 234   0.0000       0.278269         7.5721 
 235   0.0000       0.278946         7.5905 
 236   0.0000       0.281192         7.6516 
 237   0.0000       0.282038         7.6746 
 238   0.0000       0.284931         7.7534 
 239   0.0000       0.286128         7.7859 
 240   0.0000       0.288543         7.8517 
 241   0.0000       0.290469         7.9041 
 242   0.0000       0.292631         7.9629 
 243   0.0000       0.294772         8.0211 
 244   0.0000       0.299874         8.1600 
 245   0.0000       0.302983         8.2446 
 246   0.0000       0.304614         8.2890 
 247   0.0000       0.307986         8.3807 
 248   0.0000       0.313189         8.5223 
 249   0.0000       0.314889         8.5686 
 250   0.0000       0.316568         8.6143 
 251   0.0000       0.318886         8.6773 
 252   0.0000       0.322758         8.7827 
 253   0.0000       0.326726         8.8907 
 254   0.0000       0.328695         8.9443 
 255   0.0000       0.334778         9.1098 
 256   0.0000       0.337520         9.1844 
 257   0.0000       0.345977         9.4145 
 258   0.0000       0.347696         9.4613 
 259   0.0000       0.352643         9.5959 
 260   0.0000       0.357605         9.7309 
 261   0.0000       0.358092         9.7442 
 262   0.0000       0.361590         9.8394 
 263   0.0000       0.370026        10.0689 
 264   0.0000       0.371769        10.1163 
 265   0.0000       0.376718        10.2510 
 266   0.0000       0.382778        10.4159 
 267   0.0000       0.384497        10.4627 
 268   0.0000       0.386990        10.5305 
 269   0.0000       0.400784        10.9059 
 270   0.0000       0.404385        11.0039 
 271   0.0000       0.410157        11.1610 
 272   0.0000       0.414520        11.2797 
 273   0.0000       0.417099        11.3499 
 274   0.0000       0.429546        11.6885 
 275   0.0000       0.435394        11.8477 
 276   0.0000       0.442198        12.0328 
 277   0.0000       0.445449        12.1213 
 278   0.0000       0.461782        12.5657 
 279   0.0000       0.463250        12.6057 
 280   0.0000       0.481511        13.1026 
 281   0.0000       0.492490        13.4013 
 282   0.0000       0.501855        13.6562 
 283   0.0000       0.503828        13.7099 
 284   0.0000       0.514764        14.0074 
 285   0.0000       0.519063        14.1244 
 286   0.0000       0.525803        14.3078 
 287   0.0000       0.530359        14.4318 
 288   0.0000       0.533552        14.5187 
 289   0.0000       0.543449        14.7880 
 290   0.0000       0.552100        15.0234 
 291   0.0000       0.553176        15.0527 
 292   0.0000       0.553582        15.0637 
 293   0.0000       0.565130        15.3780 
 294   0.0000       0.570468        15.5232 
 295   0.0000       0.573567        15.6075 
 296   0.0000       0.574870        15.6430 
 297   0.0000       0.576823        15.6962 
 298   0.0000       0.579127        15.7588 
 299   0.0000       0.580889        15.8068 
 300   0.0000       0.584675        15.9098 
 301   0.0000       0.587501        15.9867 
 302   0.0000       0.590425        16.0663 
 303   0.0000       0.593007        16.1365 
 304   0.0000       0.601946        16.3798 
 305   0.0000       0.607439        16.5292 
 306   0.0000       0.608573        16.5601 
 307   0.0000       0.612716        16.6728 
 308   0.0000       0.616366        16.7722 
 309   0.0000       0.618542        16.8314 
 310   0.0000       0.619621        16.8607 
 311   0.0000       0.621146        16.9022 
 312   0.0000       0.622125        16.9289 
 313   0.0000       0.625199        17.0125 
 314   0.0000       0.632125        17.2010 
 315   0.0000       0.634411        17.2632 
 316   0.0000       0.637215        17.3395 
 317   0.0000       0.640533        17.4298 
 318   0.0000       0.643458        17.5094 
 319   0.0000       0.649978        17.6868 
 320   0.0000       0.652425        17.7534 
 321   0.0000       0.655659        17.8414 
 322   0.0000       0.661493        18.0001 
 323   0.0000       0.665570        18.1111 
 324   0.0000       0.668379        18.1875 
 325   0.0000       0.671095        18.2614 
 326   0.0000       0.672218        18.2920 
 327   0.0000       0.674635        18.3577 
 328   0.0000       0.677728        18.4419 
 329   0.0000       0.688603        18.7378 
 330   0.0000       0.698858        19.0169 
 331   0.0000       0.706868        19.2349 
 332   0.0000       0.713974        19.4282 
 333   0.0000       0.717325        19.5194 
 334   0.0000       0.718588        19.5538 
 335   0.0000       0.721398        19.6302 
 336   0.0000       0.723251        19.6807 
 337   0.0000       0.724637        19.7184 
 338   0.0000       0.727645        19.8002 
 339   0.0000       0.734419        19.9846 
 340   0.0000       0.735265        20.0076 
 341   0.0000       0.740001        20.1364 
 342   0.0000       0.741067        20.1655 
 343   0.0000       0.743004        20.2182 
 344   0.0000       0.745993        20.2995 
 345   0.0000       0.749746        20.4016 
 346   0.0000       0.750923        20.4336 
 347   0.0000       0.752707        20.4822 
 348   0.0000       0.753997        20.5173 
 349   0.0000       0.755095        20.5472 
 350   0.0000       0.757837        20.6218 
 351   0.0000       0.759944        20.6791 
 352   0.0000       0.764289        20.7974 
 353   0.0000       0.765747        20.8370 
 354   0.0000       0.769165        20.9301 
 355   0.0000       0.774138        21.0654 
 356   0.0000       0.775451        21.1011 
 357   0.0000       0.779797        21.2194 
 358   0.0000       0.783121        21.3098 
 359   0.0000       0.785186        21.3660 
 360   0.0000       0.791412        21.5354 
 361   0.0000       0.797582        21.7033 
 362   0.0000       0.801233        21.8027 
 363   0.0000       0.805032        21.9060 
 364   0.0000       0.808929        22.0121 
 365   0.0000       0.817356        22.2414 
 366   0.0000       0.822805        22.3897 
 367   0.0000       0.825284        22.4571 
 368   0.0000       0.829559        22.5734 
 369   0.0000       0.831194        22.6179 
 370   0.0000       0.832261        22.6470 
 371   0.0000       0.836752        22.7692 
 372   0.0000       0.845725        23.0133 
 373   0.0000       0.852036        23.1851 
 374   0.0000       0.857521        23.3343 
 375   0.0000       0.861031        23.4299 
 376   0.0000       0.866901        23.5896 
 377   0.0000       0.874163        23.7872 
 378   0.0000       0.879529        23.9332 
 379   0.0000       0.883779        24.0488 
 380   0.0000       0.886422        24.1208 
 381   0.0000       0.891072        24.2473 
 382   0.0000       0.901698        24.5364 
 383   0.0000       0.906759        24.6742 
 384   0.0000       0.914446        24.8833 
 385   0.0000       0.919126        25.0107 
 386   0.0000       0.922013        25.0892 
 387   0.0000       0.926005        25.1979 
 388   0.0000       0.955135        25.9906 
 389   0.0000       0.962132        26.1809 
 390   0.0000       0.979046        26.6412 
 391   0.0000       0.988275        26.8923 
 392   0.0000       0.993712        27.0403 
 393   0.0000       1.003258        27.3000 
 394   0.0000       1.005274        27.3549 
 395   0.0000       1.015475        27.6325 
 396   0.0000       1.017329        27.6829 
 397   0.0000       1.028110        27.9763 
 398   0.0000       1.051132        28.6028 
 399   0.0000       1.064778        28.9741 
 400   0.0000       1.066181        29.0123 
 401   0.0000       1.073500        29.2114 
 402   0.0000       1.085585        29.5403 
 403   0.0000       1.091349        29.6971 
 404   0.0000       1.124898        30.6100 
 405   0.0000       1.135986        30.9117 
 406   0.0000       1.143314        31.1112 
 407   0.0000       1.158675        31.5291 
 408   0.0000       1.164914        31.6989 
 409   0.0000       1.171743        31.8847 
 410   0.0000       1.174134        31.9498 
 411   0.0000       1.174653        31.9639 
 412   0.0000       1.178190        32.0602 
 413   0.0000       1.198342        32.6085 
 414   0.0000       1.206532        32.8314 
 415   0.0000       1.209663        32.9166 
 416   0.0000       1.225052        33.3354 
 417   0.0000       1.237570        33.6760 
 418   0.0000       1.245977        33.9048 
 419   0.0000       1.249558        34.0022 
 420   0.0000       1.249865        34.0106 
 421   0.0000       1.262555        34.3559 
 422   0.0000       1.271961        34.6118 
 423   0.0000       1.287227        35.0272 
 424   0.0000       1.293511        35.1982 
 425   0.0000       1.294269        35.2188 
 426   0.0000       1.308241        35.5990 
 427   0.0000       1.322404        35.9844 
 428   0.0000       1.336828        36.3769 
 429   0.0000       1.357002        36.9259 
 430   0.0000       1.358482        36.9662 
 431   0.0000       1.359875        37.0041 
 432   0.0000       1.369374        37.2626 
 433   0.0000       1.375574        37.4313 
 434   0.0000       1.379840        37.5474 
 435   0.0000       1.384139        37.6643 
 436   0.0000       1.390677        37.8422 
 437   0.0000       1.395406        37.9709 
 438   0.0000       1.398096        38.0441 
 439   0.0000       1.401906        38.1478 
 440   0.0000       1.406343        38.2685 
 441   0.0000       1.408640        38.3310 
 442   0.0000       1.416398        38.5422 
 443   0.0000       1.419071        38.6149 
 444   0.0000       1.423868        38.7454 
 445   0.0000       1.425246        38.7829 
 446   0.0000       1.428681        38.8764 
 447   0.0000       1.435839        39.0712 
 448   0.0000       1.453268        39.5454 
 449   0.0000       1.542570        41.9755 
 450   0.0000       1.548505        42.1370 
 451   0.0000       1.556546        42.3558 
 452   0.0000       1.566990        42.6400 
 453   0.0000       1.586915        43.1822 
 454   0.0000       1.598391        43.4944 
 455   0.0000       1.613574        43.9076 
 456   0.0000       1.667872        45.3851 
 457   0.0000       1.680669        45.7333 
 458   0.0000       1.703417        46.3523 
 459   0.0000       1.711479        46.5717 
 460   0.0000       1.732283        47.1378 
 461   0.0000       1.742352        47.4118 
 462   0.0000       1.748393        47.5762 
 463   0.0000       1.749708        47.6120 
 464   0.0000       1.751420        47.6586 
 465   0.0000       1.754705        47.7479 
 466   0.0000       1.763567        47.9891 
 467   0.0000       1.770558        48.1793 
 468   0.0000       1.782321        48.4994 
 469   0.0000       1.786195        48.6048 
 470   0.0000       1.799859        48.9767 
 471   0.0000       1.807052        49.1724 
 472   0.0000       1.810427        49.2642 
 473   0.0000       1.811652        49.2976 
 474   0.0000       1.812324        49.3158 
 475   0.0000       1.832116        49.8544 
 476   0.0000       1.836436        49.9720 
 477   0.0000       1.845343        50.2143 
 478   0.0000       1.853642        50.4402 
 479   0.0000       1.914196        52.0879 
 480   0.0000       1.914622        52.0995 
 481   0.0000       1.917993        52.1912 
 482   0.0000       1.940073        52.7921 
 483   0.0000       1.944927        52.9242 
 484   0.0000       1.948513        53.0217 
 485   0.0000       1.953200        53.1493 
 486   0.0000       1.954555        53.1862 
 487   0.0000       1.958279        53.2875 
 488   0.0000       1.959265        53.3143 
 489   0.0000       1.978890        53.8483 
 490   0.0000       1.990959        54.1767 
 491   0.0000       1.999406        54.4066 
 492   0.0000       2.006992        54.6130 
 493   0.0000       2.008239        54.6470 
 494   0.0000       2.010341        54.7042 
 495   0.0000       2.014922        54.8288 
 496   0.0000       2.026476        55.1432 
 497   0.0000       2.040027        55.5120 
 498   0.0000       2.043198        55.5982 
 499   0.0000       2.050042        55.7845 
 500   0.0000       2.051012        55.8109 
 501   0.0000       2.052361        55.8476 
 502   0.0000       2.077185        56.5231 
 503   0.0000       2.107378        57.3447 
 504   0.0000       2.112878        57.4943 
 505   0.0000       2.123948        57.7956 
 506   0.0000       2.130615        57.9770 
 507   0.0000       2.154921        58.6384 
 508   0.0000       2.169973        59.0480 
 509   0.0000       2.172982        59.1299 
 510   0.0000       2.187170        59.5159 
 511   0.0000       2.192955        59.6734 
 512   0.0000       2.198334        59.8197 
 513   0.0000       2.200664        59.8831 
 514   0.0000       2.202524        59.9337 
 515   0.0000       2.206966        60.0546 
 516   0.0000       2.208067        60.0846 
 517   0.0000       2.210459        60.1497 
 518   0.0000       2.225424        60.5569 
 519   0.0000       2.229129        60.6577 
 520   0.0000       2.248814        61.1933 
 521   0.0000       2.249240        61.2049 
 522   0.0000       2.325498        63.2800 
 523   0.0000       2.330707        63.4218 
 524   0.0000       2.343484        63.7694 
 525   0.0000       2.347847        63.8882 
 526   0.0000       2.354137        64.0593 
 527   0.0000       2.373063        64.5743 
 528   0.0000       2.395122        65.1746 
 529   0.0000       2.403428        65.4006 
 530   0.0000       2.412845        65.6569 
 531   0.0000       2.416323        65.7515 
 532   0.0000       2.423417        65.9445 
 533   0.0000       2.430435        66.1355 
 534   0.0000       2.435239        66.2662 
 535   0.0000       2.440680        66.4143 
 536   0.0000       2.458662        66.9036 
 537   0.0000       2.472971        67.2930 
 538   0.0000       2.492361        67.8206 
 539   0.0000       2.506028        68.1925 
 540   0.0000       2.519372        68.5556 
 541   0.0000       2.521768        68.6208 
 542   0.0000       2.526168        68.7405 
 543   0.0000       2.537697        69.0542 
 544   0.0000       2.538851        69.0856 
 545   0.0000       2.541965        69.1704 
 546   0.0000       2.546897        69.3046 
 547   0.0000       2.568887        69.9030 
 548   0.0000       2.601846        70.7998 
 549   0.0000       2.607309        70.9485 
 550   0.0000       2.629914        71.5636 
 551   0.0000       2.635856        71.7253 
 552   0.0000       2.646020        72.0019 
 553   0.0000       2.649734        72.1029 
 554   0.0000       2.657060        72.3023 
 555   0.0000       2.664137        72.4948 
 556   0.0000       2.674186        72.7683 
 557   0.0000       2.681926        72.9789 
 558   0.0000       2.691712        73.2452 
 559   0.0000       2.701653        73.5157 
 560   0.0000       2.714398        73.8625 
 561   0.0000       2.727480        74.2185 
 562   0.0000       2.779400        75.6313 
 563   0.0000       2.818984        76.7084 
 564   0.0000       2.856881        77.7397 
 565   0.0000       2.874609        78.2221 
 566   0.0000       2.880647        78.3864 
 567   0.0000       2.915382        79.3316 
 568   0.0000       2.940708        80.0207 
 569   0.0000       3.000414        81.6454 
 570   0.0000       3.105767        84.5122 
 571   0.0000       3.147161        85.6386 
 572   0.0000       3.218595        87.5824 
 573   0.0000       3.247107        88.3583 
 574   0.0000       3.276251        89.1513 
 575   0.0000       3.302899        89.8765 
 576   0.0000       3.319752        90.3350 
 577   0.0000       3.364396        91.5499 
 578   0.0000       3.444093        93.7185 
 579   0.0000       3.450617        93.8961 

                    ********************************
                    * MULLIKEN POPULATION ANALYSIS *
                    ********************************

-----------------------
MULLIKEN ATOMIC CHARGES
-----------------------
   0 C :    2.795515
   1 C :   -0.352889
   2 C :   -2.077060
   3 C :    1.678489
   4 N :   -0.509262
   5 N :   -0.411096
   6 C :    1.653418
   7 C :   -1.271894
   8 C :   -1.214021
   9 C :    3.103641
  10 C :    0.133326
  11 C :   -2.368610
  12 C :   -0.538093
  13 C :   -1.628896
  14 H :    0.150531
  15 H :    0.180206
  16 H :    0.176409
  17 H :    0.171534
  18 H :    0.153528
  19 H :    0.180647
  20 H :    0.182514
  21 H :    0.169522
  22 N :   -0.645798
  23 N :   -0.741260
  24 C :    0.055326
  25 C :   -1.111803
  26 C :   -0.063935
  27 C :   -0.033775
  28 C :    0.032242
  29 C :   -0.258455
  30 H :    0.158099
  31 H :    0.152711
  32 H :    0.158477
  33 H :    0.161424
  34 H :    0.184704
  35 C :    0.114832
  36 C :   -1.210049
  37 C :    0.074207
  38 C :   -0.071233
  39 C :    0.041999
  40 C :   -0.147978
  41 H :    0.146677
  42 H :    0.163644
  43 H :    0.154887
  44 H :    0.191590
  45 H :    0.151333
  46 C :    0.913849
  47 C :    0.724269
  48 H :    0.171969
  49 H :    0.174588
Sum of atomic charges:   -0.0000000

--------------------------------
MULLIKEN REDUCED ORBITAL CHARGES
--------------------------------
  0 C s       :     2.642958  s :     2.642958
      pz      :     0.381311  p :     0.506668
      px      :    -0.403818
      py      :     0.529176
      dz2     :     0.010369  d :     0.054859
      dxz     :     0.013708
      dyz     :     0.007293
      dx2y2   :     0.011905
      dxy     :     0.011585
  1 C s       :     3.717494  s :     3.717494
      pz      :     0.756179  p :     2.603446
      px      :     1.012953
      py      :     0.834313
      dz2     :     0.006678  d :     0.031950
      dxz     :     0.008116
      dyz     :     0.004780
      dx2y2   :     0.007563
      dxy     :     0.004813
  2 C s       :     5.181291  s :     5.181291
      pz      :     0.677958  p :     2.862633
      px      :     1.249455
      py      :     0.935220
      dz2     :     0.005828  d :     0.033136
      dxz     :     0.007910
      dyz     :     0.005430
      dx2y2   :     0.006784
      dxy     :     0.007184
  3 C s       :     2.854614  s :     2.854614
      pz      :     0.339093  p :     1.415040
      px      :     0.095757
      py      :     0.980191
      dz2     :     0.010220  d :     0.051857
      dxz     :     0.014822
      dyz     :     0.006332
      dx2y2   :     0.010037
      dxy     :     0.010447
  4 N s       :     3.643932  s :     3.643932
      pz      :     1.456608  p :     3.826762
      px      :     1.169544
      py      :     1.200610
      dz2     :     0.005107  d :     0.038569
      dxz     :     0.012818
      dyz     :     0.003397
      dx2y2   :     0.007278
      dxy     :     0.009969
  5 N s       :     3.518894  s :     3.518894
      pz      :     1.525048  p :     3.854004
      px      :     1.138109
      py      :     1.190847
      dz2     :     0.005101  d :     0.038198
      dxz     :     0.013094
      dyz     :     0.003115
      dx2y2   :     0.007232
      dxy     :     0.009656
  6 C s       :     2.968054  s :     2.968054
      pz      :     0.231768  p :     1.325540
      px      :     0.387761
      py      :     0.706011
      dz2     :     0.011482  d :     0.052988
      dxz     :     0.016625
      dyz     :     0.006502
      dx2y2   :     0.009300
      dxy     :     0.009078
  7 C s       :     4.548022  s :     4.548022
      pz      :     0.708892  p :     2.689975
      px      :     1.151901
      py      :     0.829182
      dz2     :     0.007899  d :     0.033898
      dxz     :     0.008895
      dyz     :     0.004253
      dx2y2   :     0.005657
      dxy     :     0.007193
  8 C s       :     4.826605  s :     4.826605
      pz      :     0.584067  p :     2.354059
      px      :     0.843188
      py      :     0.926805
      dz2     :     0.008042  d :     0.033357
      dxz     :     0.009607
      dyz     :     0.004970
      dx2y2   :     0.005825
      dxy     :     0.004914
  9 C s       :     2.449186  s :     2.449186
      pz      :    -0.887324  p :     0.390214
      px      :     0.452234
      py      :     0.825304
      dz2     :     0.013515  d :     0.056959
      dxz     :     0.016482
      dyz     :     0.006401
      dx2y2   :     0.011076
      dxy     :     0.009485
 10 C s       :     3.400108  s :     3.400108
      pz      :     0.758017  p :     2.434746
      px      :     0.700067
      py      :     0.976661
      dz2     :     0.007948  d :     0.031821
      dxz     :     0.008173
      dyz     :     0.004121
      dx2y2   :     0.005560
      dxy     :     0.006019
 11 C s       :     5.484434  s :     5.484434
      pz      :     1.183155  p :     2.852323
      px      :     0.757292
      py      :     0.911876
      dz2     :     0.007677  d :     0.031853
      dxz     :     0.009176
      dyz     :     0.004869
      dx2y2   :     0.005630
      dxy     :     0.004500
 12 C s       :     3.790680  s :     3.790680
      pz      :     0.862890  p :     2.714837
      px      :     0.854914
      py      :     0.997033
      dz2     :     0.007313  d :     0.032577
      dxz     :     0.007849
      dyz     :     0.004909
      dx2y2   :     0.007598
      dxy     :     0.004907
 13 C s       :     5.122212  s :     5.122212
      pz      :     0.869101  p :     2.473878
      px      :     0.740135
      py      :     0.864642
      dz2     :     0.005615  d :     0.032806
      dxz     :     0.007970
      dyz     :     0.005606
      dx2y2   :     0.006900
      dxy     :     0.006715
 14 H s       :     0.849469  s :     0.849469
 15 H s       :     0.819794  s :     0.819794
 16 H s       :     0.823591  s :     0.823591
 17 H s       :     0.828466  s :     0.828466
 18 H s       :     0.846472  s :     0.846472
 19 H s       :     0.819353  s :     0.819353
 20 H s       :     0.817486  s :     0.817486
 21 H s       :     0.830478  s :     0.830478
 22 N s       :     3.719967  s :     3.719967
      pz      :     1.383418  p :     3.901522
      px      :     1.205254
      py      :     1.312851
      dz2     :     0.003292  d :     0.024308
      dxz     :     0.007322
      dyz     :     0.002627
      dx2y2   :     0.004513
      dxy     :     0.006554
 23 N s       :     3.705477  s :     3.705477
      pz      :     1.396605  p :     4.011782
      px      :     1.438774
      py      :     1.176404
      dz2     :     0.007321  d :     0.024001
      dxz     :     0.004567
      dyz     :     0.005043
      dx2y2   :     0.004258
      dxy     :     0.002813
 24 C s       :     3.976973  s :     3.976973
      pz      :     0.770693  p :     1.929489
      px      :     0.274372
      py      :     0.884425
      dz2     :     0.006387  d :     0.038212
      dxz     :     0.009386
      dyz     :     0.004991
      dx2y2   :     0.007985
      dxy     :     0.009463
 25 C s       :     4.149584  s :     4.149584
      pz      :     1.016773  p :     2.929131
      px      :     0.935938
      py      :     0.976420
      dz2     :     0.006397  d :     0.033088
      dxz     :     0.006371
      dyz     :     0.004994
      dx2y2   :     0.009494
      dxy     :     0.005832
 26 C s       :     3.366415  s :     3.366415
      pz      :     0.919783  p :     2.663492
      px      :     0.828865
      py      :     0.914844
      dz2     :     0.004093  d :     0.034028
      dxz     :     0.007818
      dyz     :     0.005987
      dx2y2   :     0.008100
      dxy     :     0.008029
 27 C s       :     3.380048  s :     3.380048
      pz      :     0.884537  p :     2.619413
      px      :     0.833144
      py      :     0.901733
      dz2     :     0.005367  d :     0.034313
      dxz     :     0.008521
      dyz     :     0.004547
      dx2y2   :     0.006411
      dxy     :     0.009467
 28 C s       :     3.340794  s :     3.340794
      pz      :     0.867426  p :     2.593020
      px      :     0.859268
      py      :     0.866326
      dz2     :     0.006471  d :     0.033944
      dxz     :     0.006692
      dyz     :     0.005009
      dx2y2   :     0.009716
      dxy     :     0.006055
 29 C s       :     3.848875  s :     3.848875
      pz      :     0.904087  p :     2.375986
      px      :     0.581830
      py      :     0.890070
      dz2     :     0.004045  d :     0.033593
      dxz     :     0.007752
      dyz     :     0.005936
      dx2y2   :     0.008016
      dxy     :     0.007845
 30 H s       :     0.841901  s :     0.841901
 31 H s       :     0.847289  s :     0.847289
 32 H s       :     0.841523  s :     0.841523
 33 H s       :     0.838576  s :     0.838576
 34 H s       :     0.815296  s :     0.815296
 35 C s       :     3.804741  s :     3.804741
      pz      :     0.637629  p :     2.042776
      px      :     0.420515
      py      :     0.984632
      dz2     :     0.009929  d :     0.037652
      dxz     :     0.010313
      dyz     :     0.005964
      dx2y2   :     0.006108
      dxy     :     0.005338
 36 C s       :     4.046156  s :     4.046156
      pz      :     1.006155  p :     3.130640
      px      :     1.153895
      py      :     0.970590
      dz2     :     0.007865  d :     0.033253
      dxz     :     0.011244
      dyz     :     0.003315
      dx2y2   :     0.004911
      dxy     :     0.005918
 37 C s       :     3.229351  s :     3.229351
      pz      :     0.826150  p :     2.661736
      px      :     0.865665
      py      :     0.969921
      dz2     :     0.007567  d :     0.034706
      dxz     :     0.012785
      dyz     :     0.003988
      dx2y2   :     0.004757
      dxy     :     0.005609
 38 C s       :     3.431685  s :     3.431685
      pz      :     0.781333  p :     2.605090
      px      :     0.873080
      py      :     0.950677
      dz2     :     0.010230  d :     0.034458
      dxz     :     0.008688
      dyz     :     0.005861
      dx2y2   :     0.007031
      dxy     :     0.002649
 39 C s       :     3.342929  s :     3.342929
      pz      :     0.880676  p :     2.581558
      px      :     0.727331
      py      :     0.973551
      dz2     :     0.007993  d :     0.033514
      dxz     :     0.011429
      dyz     :     0.003399
      dx2y2   :     0.004993
      dxy     :     0.005700
 40 C s       :     3.714305  s :     3.714305
      pz      :     0.811482  p :     2.400494
      px      :     0.611670
      py      :     0.977341
      dz2     :     0.007142  d :     0.033180
      dxz     :     0.012106
      dyz     :     0.003862
      dx2y2   :     0.004474
      dxy     :     0.005597
 41 H s       :     0.853323  s :     0.853323
 42 H s       :     0.836356  s :     0.836356
 43 H s       :     0.845113  s :     0.845113
 44 H s       :     0.808410  s :     0.808410
 45 H s       :     0.848667  s :     0.848667
 46 C s       :     2.646168  s :     2.646168
      pz      :     0.591659  p :     2.386024
      px      :     0.808977
      py      :     0.985388
      dz2     :     0.005872  d :     0.053959
      dxz     :     0.015824
      dyz     :     0.005403
      dx2y2   :     0.011234
      dxy     :     0.015626
 47 C s       :     2.817150  s :     2.817150
      pz      :     0.872800  p :     2.403600
      px      :     0.621433
      py      :     0.909368
      dz2     :     0.014248  d :     0.054981
      dxz     :     0.019397
      dyz     :     0.008359
      dx2y2   :     0.006486
      dxy     :     0.006490
 48 H s       :     0.828031  s :     0.828031
 49 H s       :     0.825412  s :     0.825412


                     *******************************
                     * LOEWDIN POPULATION ANALYSIS *
                     *******************************

----------------------
LOEWDIN ATOMIC CHARGES
----------------------
   0 C :   -0.039133
   1 C :   -0.164082
   2 C :   -0.143703
   3 C :   -0.076800
   4 N :   -0.127496
   5 N :   -0.140642
   6 C :   -0.074748
   7 C :   -0.142937
   8 C :   -0.153304
   9 C :   -0.039201
  10 C :   -0.149237
  11 C :   -0.139341
  12 C :   -0.144418
  13 C :   -0.152257
  14 H :    0.214531
  15 H :    0.218392
  16 H :    0.219358
  17 H :    0.219459
  18 H :    0.215525
  19 H :    0.222082
  20 H :    0.224526
  21 H :    0.217255
  22 N :   -0.253011
  23 N :   -0.263831
  24 C :   -0.128930
  25 C :   -0.154108
  26 C :   -0.181120
  27 C :   -0.172649
  28 C :   -0.182703
  29 C :   -0.165268
  30 H :    0.203482
  31 H :    0.211512
  32 H :    0.203623
  33 H :    0.203578
  34 H :    0.219127
  35 C :   -0.126821
  36 C :   -0.155062
  37 C :   -0.183694
  38 C :   -0.178948
  39 C :   -0.184776
  40 C :   -0.165637
  41 H :    0.210673
  42 H :    0.203183
  43 H :    0.202261
  44 H :    0.220998
  45 H :    0.202394
  46 C :   -0.035331
  47 C :   -0.025570
  48 H :    0.207566
  49 H :    0.205233

-------------------------------
LOEWDIN REDUCED ORBITAL CHARGES
-------------------------------
  0 C s       :     2.819338  s :     2.819338
      pz      :     1.044431  p :     3.081742
      px      :     1.046268
      py      :     0.991043
      dz2     :     0.024792  d :     0.138053
      dxz     :     0.035832
      dyz     :     0.020400
      dx2y2   :     0.028969
      dxy     :     0.028060
  1 C s       :     2.880628  s :     2.880628
[...]
    Basis function eval.    ....      13.212 sec  ( 18.5% of XC)
    Density eval.           ....      24.796 sec  ( 34.7% of XC)
    XC-Functional eval.     ....       1.508 sec  (  2.1% of XC)
    XC-Potential eval.      ....      28.356 sec  ( 39.7% of XC)
Diagonalization             ....       1.451 sec  (  0.4%)
Density matrix formation    ....       0.283 sec  (  0.1%)
Population analysis         ....       1.250 sec  (  0.3%)
Initial guess               ....       8.453 sec  (  2.1%)
Orbital Transformation      ....       0.000 sec  (  0.0%)
Orbital Orthonormalization  ....       0.000 sec  (  0.0%)
DIIS solution               ....       0.547 sec  (  0.1%)
SOSCF solution              ....       1.782 sec  (  0.4%)
Grid generation             ....      12.265 sec  (  3.0%)
COSMO(total)                ....     180.751 sec  ( 44.0%)
   Initialization           ....      14.675 sec  (  8.1% of COSMO)
   Potential evaluation     ....      98.740 sec  ( 54.6% of COSMO)
   Charge calculation       ....       8.082 sec  (  4.5% of COSMO)
   Fock-Matrix contrib.     ....      62.440 sec  ( 34.5% of COSMO)
   Outer-lying charge       ....       4.754 sec  (  2.6% of COSMO)
------------------------------------------------------------------------------
                        ORCA TD-DFT/TDA CALCULATION
------------------------------------------------------------------------------

Input orbitals are from        ... C:\Users\Jan\Documents\lib\ORCAunleashed\output\job_11_04_2018_j7\job_11_04_2018_j7.gbw
CI-vector output               ... C:\Users\Jan\Documents\lib\ORCAunleashed\output\job_11_04_2018_j7\job_11_04_2018_j7.cis
Tamm-Dancoff approximation     ... operative
CIS-Integral strategy          ... RI-integrals
Integral files                 ... C:\Users\Jan\Documents\lib\ORCAunleashed\output\job_11_04_2018_j7\job_11_04_2018_j7
Reference state                ... RHF
Generation of triplets         ... off
Number of operators            ... 1
Orbital ranges used for CIS calculation:
 Operator 0:  Orbitals  30...101  to 102...579
XAS localization array:
 Operator 0:  Orbitals  -1... -1
-------------------
XC-INTEGRATION GRID
-------------------

General Integration Accuracy     IntAcc      ...  3.670
Radial Grid Type                 RadialGrid  ... Gauss-Chebyshev
Angular Grid (max. acc.)         AngularGrid ... Lebedev-50
Angular grid pruning method      GridPruning ... 3 (G Style)
Weight generation scheme         WeightScheme... Becke
Basis function cutoff            BFCut       ...   1.0000e-011
Integration weight cutoff        WCut        ...   1.0000e-014
Grids for H and He will be reduced by one unit

# of grid points (after initial pruning)     ...  29900 (   0.0 sec)
# of grid points (after weights+screening)   ...  27395 (   0.5 sec)
nearest neighbour list constructed           ...    0.0 sec
Grid point re-assignment to atoms done       ...    0.0 sec
Grid point division into batches done        ...    0.0 sec
Reduced shell lists constructed in    0.8 sec

Total number of grid points                  ...    27395
Total number of batches                      ...      450
Average number of points per batch           ...       60
Average number of grid points per atom       ...      548
Average number of shells per batch           ...   119.43 (42.65%)
Average number of basis functions per batch  ...   241.66 (41.67%)
Average number of large shells per batch     ...    85.94 (71.96%)
Average number of large basis fcns per batch ...   176.32 (72.96%)
Maximum spatial batch extension              ...  17.14, 26.73, 19.77 au
Average spatial batch extension              ...   3.69,  5.78,  5.03 au


-----------------
RI-TRANSFORMATION
-----------------

Dimension of the orbital-basis  ... 580
Dimension of the aux-basis      ... 2500

Starting direct RI integral transformation:
  Aux angular momentum 0               ... done (   29.775 sec)
  Aux angular momentum 1               ... done (   33.192 sec)
  Aux angular momentum 2               ... done (   21.953 sec)
  Aux angular momentum 3               ... done (   15.016 sec)
Transformation completed in   100.124 sec


RI transformation completed in   100.311 sec

---------------
TD-DFT XC SETUP
---------------

DFT calculation                         ... on
Name of the grid file                   ... C:\Users\Jan\Documents\lib\ORCAunleashed\output\job_11_04_2018_j7\job_11_04_2018_j7.grid_cis.tmp
RI-approximation                        ... on
Aux-basis dimension                     ... 2500
Exchange functional (SCF)               ... B88
Exchange functional (TD-DFT)            ... B88
   X-Alpha parameter    XAlpha (SCF)    ...  0.666667
   X-Alpha parameter    XAlpha (TD-DFT) ...  0.666667
   Becke's b parameter  XBeta (SCF)     ...  0.004200
   Becke's b parameter  XBeta (TD-DFT)  ...  0.004200
Correlation functional (SCF)            ... P86
Correlation functional (TD-DFT)         ... P86
 LDA part of GGA corr.  LDAOpt (SCF)    ... PW91-LDA
 LDA part of GGA corr.  LDAOpt (TD-DFT) ... PW91-LDA

Building densities             ... done
Calculating rho(r) on the grid ... done
Building xc-kernel on the grid ... done
                    *** TD-DFT CALCULATION INITIALIZED ***


------------------------
DAVIDSON-DIAGONALIZATION
------------------------

Dimension of the eigenvalue problem            ...  34416
Number of roots to be determined               ...     10
Maximum size of the expansion space            ...    200
Convergence tolerance for the residual         ...   2.500e-007
Convergence tolerance for the energies         ...   2.500e-007
Orthogonality tolerance                        ...   1.000e-014
Level Shift                                    ...   0.000e+000
Constructing the preconditioner                ... o.k.
Building the initial guess                     ... o.k.
Number of trial vectors determined             ...     20


                       ****Iteration    0****
              <<< Entering RI-section for Build Sigma >>>
   Batch 0
   This batch will form 20 vectors
   Forming the Coulomb type contribution:
        PASS-1 done
        PASS-2 done
   Coulomb term done in    18.19 sec
   Forming the XC-contribution:

   Memory handling for XC-terms:
   Memory per vector needed      ...     7 MB
   Memory needed                 ...   154 MB
   Memory available              ...   512 MB
   Number of vectors per batch   ...    66
   Number of batches             ...     1
   Time for densities:     1.297
   Time for XC-Integration:    40.189
   Time for Sigma-Completion:    13.942
   XC Term done in    55.51 sec
   Done building sigma-vectors
   Size of expansion space: 20
   Lowest Energy          :     0.056000348484
   Maximum Energy change  :     0.114363743993 (vector 9)
   Maximum residual norm  :     0.003575169611

                       ****Iteration    1****
              <<< Entering RI-section for Build Sigma >>>
   Batch 0
   This batch will form 10 vectors
   Forming the Coulomb type contribution:
        PASS-1 done
        PASS-2 done
   Coulomb term done in    29.09 sec
   Forming the XC-contribution:
   Time for densities:     0.657
   Time for XC-Integration:    21.973
   Time for Sigma-Completion:     6.300
   XC Term done in    28.96 sec
   Done building sigma-vectors
   Size of expansion space: 30
   Lowest Energy          :     0.055034907499
   Maximum Energy change  :     0.004446401496 (vector 4)
   Maximum residual norm  :     0.000211268727

                       ****Iteration    2****
              <<< Entering RI-section for Build Sigma >>>
   Batch 0
   This batch will form 10 vectors
   Forming the Coulomb type contribution:
        PASS-1 done
        PASS-2 done
   Coulomb term done in    27.65 sec
   Forming the XC-contribution:
   Time for densities:     0.741
   Time for XC-Integration:    22.941
   Time for Sigma-Completion:     6.998
   XC Term done in    30.72 sec
   Done building sigma-vectors
   Size of expansion space: 40
   Lowest Energy          :     0.055025828030
   Maximum Energy change  :     0.000250529157 (vector 5)
   Maximum residual norm  :     0.000022073834

                       ****Iteration    3****
              <<< Entering RI-section for Build Sigma >>>
   Batch 0
   This batch will form 10 vectors
   Forming the Coulomb type contribution:
        PASS-1 done
        PASS-2 done
   Coulomb term done in     8.58 sec
   Forming the XC-contribution:
   Time for densities:     0.641
   Time for XC-Integration:    22.271
   Time for Sigma-Completion:     6.606
   XC Term done in    29.56 sec
   Done building sigma-vectors
   Size of expansion space: 50
   Lowest Energy          :     0.055024973935
   Maximum Energy change  :     0.000028305209 (vector 5)
   Maximum residual norm  :     0.000001277104

                       ****Iteration    4****
              <<< Entering RI-section for Build Sigma >>>
   Batch 0
   This batch will form 10 vectors
   Forming the Coulomb type contribution:
        PASS-1 done
        PASS-2 done
   Coulomb term done in     8.80 sec
   Forming the XC-contribution:
   Time for densities:     0.737
   Time for XC-Integration:    22.429
   Time for Sigma-Completion:     6.891
   XC Term done in    30.09 sec
   Done building sigma-vectors
   Size of expansion space: 60
   Lowest Energy          :     0.055024942354
   Maximum Energy change  :     0.000001092822 (vector 5)
   Maximum residual norm  :     0.000000065325

      *** CONVERGENCE OF RESIDUAL NORM REACHED ***

Storing the converged CI vectors               ... C:\Users\Jan\Documents\lib\ORCAunleashed\output\job_11_04_2018_j7\job_11_04_2018_j7.cis1

                 *** DAVIDSON DONE ***

Total time for solving the CIS problem:   274.298sec

-------------------
COSMO SOLVENT SHIFT
-------------------

Gathering CIS information              ... done
Reading the segment data               ... done
Making difference densities            ... done
Computing the potentials               ... done
Calculating charges                    ... done

------------------------------------
TD-DFT/TDA EXCITED STATES (SINGLETS)
------------------------------------

the weight of the individual excitations are printed if larger than 0.01

STATE  1:  E=   0.045943 au      1.250 eV    10083.3 cm**-1
   101a -> 102a  :     0.977750 (c=  0.98881244)
   101a -> 104a  :     0.011782 (c= -0.10854613)

STATE  2:  E=   0.054711 au      1.489 eV    12007.8 cm**-1
    99a -> 102a  :     0.854990 (c=  0.92465651)
   100a -> 102a  :     0.137448 (c=  0.37074043)

STATE  3:  E=   0.059040 au      1.607 eV    12957.7 cm**-1
   101a -> 103a  :     0.983940 (c= -0.99193738)

STATE  4:  E=   0.069547 au      1.892 eV    15263.8 cm**-1
    97a -> 102a  :     0.148095 (c=  0.38483161)
    98a -> 102a  :     0.610828 (c= -0.78155469)
    99a -> 102a  :     0.037769 (c=  0.19434342)
   100a -> 102a  :     0.183629 (c= -0.42851994)

STATE  5:  E=   0.088257 au      2.402 eV    19370.1 cm**-1
    92a -> 102a  :     0.044949 (c=  0.21201232)
    96a -> 102a  :     0.010010 (c= -0.10005015)
    98a -> 102a  :     0.231778 (c=  0.48143369)
    99a -> 102a  :     0.087477 (c=  0.29576569)
   100a -> 102a  :     0.570181 (c= -0.75510321)

STATE  6:  E=   0.095554 au      2.600 eV    20971.8 cm**-1
    97a -> 102a  :     0.588606 (c= -0.76720636)
    98a -> 102a  :     0.071772 (c= -0.26790380)
    99a -> 103a  :     0.013241 (c= -0.11506843)
   100a -> 102a  :     0.010520 (c= -0.10256865)
   100a -> 103a  :     0.286778 (c=  0.53551675)

STATE  7:  E=   0.087851 au      2.391 eV    19281.1 cm**-1
   101a -> 104a  :     0.977560 (c= -0.98871639)

STATE  8:  E=   0.077932 au      2.121 eV    17104.1 cm**-1
    96a -> 102a  :     0.927332 (c=  0.96298072)
   100a -> 103a  :     0.024359 (c= -0.15607486)

STATE  9:  E=   0.091747 au      2.497 eV    20136.1 cm**-1
    95a -> 102a  :     0.765058 (c=  0.87467567)
    96a -> 102a  :     0.016130 (c=  0.12700485)
    99a -> 103a  :     0.144534 (c=  0.38017661)
   100a -> 103a  :     0.040685 (c=  0.20170480)

STATE 10:  E=   0.098249 au      2.673 eV    21563.1 cm**-1
    95a -> 102a  :     0.191548 (c=  0.43766251)
    99a -> 103a  :     0.698894 (c= -0.83599905)
    99a -> 104a  :     0.018250 (c=  0.13509276)
   100a -> 103a  :     0.064526 (c= -0.25401879)


-------------------------
CALCULATED SOLVENT SHIFTS
-------------------------

Contributions of the 'fast' term to the solvent shift
 Note: the solvent shift is already in the CI energy; we only print it here
       for you to enjoy and see how large it is. Don't add it to the printed energies!

 State Shift(Eh) Shift(eV) Shift(cm**-1) Shift(nm) ECI(eV)  ECI+SHIFT(eV)
-------------------------------------------------------------------
   0: -0.0090821 -0.247    -1993.3       163.7      1.497     1.250
   1: -0.0227724 -0.620    -4998.0       244.8      2.108     1.489
   2: -0.0212420 -0.578    -4662.1       204.2      2.185     1.607
   3: -0.0195192 -0.531    -4284.0       143.6      2.424     1.892
   4: -0.0044543 -0.121     -977.6       24.8      2.523     2.402
   5: -0.0024910 -0.068     -546.7       12.1      2.668     2.600
   6: -0.0123250 -0.335    -2705.0       63.8      2.726     2.391
   7: -0.0300824 -0.819    -6602.3       162.8      2.939     2.121
   8: -0.0179467 -0.488    -3938.9       81.3      2.985     2.497
   9: -0.0117271 -0.319    -2573.8       49.5      2.993     2.673


-----------------------------
TD-DFT/TDA-EXCITATION SPECTRA
-----------------------------

Center of mass = ( 22.3372,  4.6265, -7.3312)
Calculating the Dipole integrals                  ... done
Transforming integrals                            ... done
Calculating the Linear Momentum integrals         ... done
Transforming integrals                            ... done
Calculating angular momentum integrals            ... done
Transforming integrals                            ... done

-----------------------------------------------------------------------------
         ABSORPTION SPECTRUM VIA TRANSITION ELECTRIC DIPOLE MOMENTS
-----------------------------------------------------------------------------
State   Energy  Wavelength   fosc         T2         TX        TY        TZ  
        (cm-1)    (nm)                  (au**2)     (au)      (au)      (au) 
-----------------------------------------------------------------------------
   1   10083.3    991.7   0.013904261   0.45396  -0.59636  -0.15544   0.27232
   2   12007.8    832.8   0.010559724   0.28951   0.47850   0.10777  -0.22122
   3   12957.7    771.7   0.000020249   0.00051  -0.01999  -0.00855  -0.00644
   4   15263.8    655.1   0.270567342   5.83564  -2.14040  -0.58656   0.95407
   5   19370.1    516.3   1.610684304  27.37500  -4.65559  -1.21252   2.05676
   6   20971.8    476.8   0.048056052   0.75438  -0.70727  -0.36507   0.34767
   7   19281.1    518.6   0.013992246   0.23891  -0.43990  -0.11049   0.18217
   8   17104.1    584.7   0.029498096   0.56777  -0.60683  -0.21467   0.39172
   9   20136.1    496.6   0.014436715   0.23603  -0.47105  -0.01237   0.11829
  10   21563.1    463.8   0.001162229   0.01774  -0.11236  -0.06943  -0.01730

-----------------------------------------------------------------------------
         ABSORPTION SPECTRUM VIA TRANSITION VELOCITY DIPOLE MOMENTS
-----------------------------------------------------------------------------
State   Energy  Wavelength   fosc         P2         PX        PY        PZ  
        (cm-1)    (nm)                  (au**2)     (au)      (au)      (au) 
-----------------------------------------------------------------------------
   1   10083.3    991.7   0.001878547   0.00013   0.00984   0.00525  -0.00223
   2   12007.8    832.8   0.006965659   0.00057  -0.01824  -0.01220   0.00949
   3   12957.7    771.7   0.002050988   0.00018   0.00072  -0.01179  -0.00648
   4   15263.8    655.1   0.139538428   0.01456   0.10852   0.03040  -0.04308
   5   19370.1    516.3   0.580642574   0.07687   0.24461   0.06967  -0.11036
   6   20971.8    476.8   0.018106358   0.00260   0.04781   0.00964  -0.01472
   7   19281.1    518.6   0.007487737   0.00099   0.02841   0.00711  -0.01136
   8   17104.1    584.7   0.016879264   0.00197   0.04406   0.00568   0.00009
   9   20136.1    496.6   0.007668817   0.00106   0.01342   0.02067  -0.02117
  10   21563.1    463.8   0.001056100   0.00016   0.00019  -0.00414  -0.01177

-------------------------------------------------------------------
                             CD SPECTRUM
-------------------------------------------------------------------
State   Energy Wavelength       R         MX        MY        MZ   
        (cm-1)   (nm)       (1e40*sgs)   (au)      (au)      (au)  
-------------------------------------------------------------------
   1   10083.3    991.7     64.33933  -0.21431   0.02061   0.04358
   2   12007.8    832.8     15.48000   0.05301   0.00864  -0.02957
   3   12957.7    771.7      0.17845  -0.01778   0.00295  -0.00750
   4   15263.8    655.1     61.40579   0.01066  -0.01197   0.15308
   5   19370.1    516.3      7.75243   0.11046   0.11087   0.32340
   6   20971.8    476.8     -0.25727   0.01485   0.01320   0.04251
   7   19281.1    518.6    -47.08117   0.23081   0.02037   0.02152
   8   17104.1    584.7      0.64447   0.01933   0.10953   0.09345
   9   20136.1    496.6     12.75831  -0.03763   0.09781   0.08915
  10   21563.1    463.8     -7.76536   0.12380   0.02980   0.02845

Total run time:      417.921 sec

           *** ORCA-CIS/TD-DFT FINISHED WITHOUT ERROR ***

-----------------------
CIS/TD-DFT TOTAL ENERGY
-----------------------

    E(SCF)  =  -1220.879329263 Eh
    DE(CIS) =      0.045942880 Eh (Root  1)
    ----------------------------- ---------
    E(tot)  =  -1220.833386383 Eh


-------------------------   --------------------
FINAL SINGLE POINT ENERGY     -1220.833386383109
-------------------------   --------------------


                            ***************************************
                            *     ORCA property calculations      *
                            ***************************************

                                    ---------------------
                                    Active property flags
                                    ---------------------
   (+) Dipole Moment


------------------------------------------------------------------------------
                       ORCA ELECTRIC PROPERTIES CALCULATION
------------------------------------------------------------------------------

Dipole Moment Calculation                       ... on
Quadrupole Moment Calculation                   ... off
Polarizability Calculation                      ... off
GBWName                                         ... C:\Users\Jan\Documents\lib\ORCAunleashed\output\job_11_04_2018_j7\job_11_04_2018_j7.gbw
Electron density file                           ... C:\Users\Jan\Documents\lib\ORCAunleashed\output\job_11_04_2018_j7\job_11_04_2018_j7.scfp.tmp

-------------
DIPOLE MOMENT
-------------
                                X             Y             Z
Electronic contribution:     -0.54950       2.46803       0.39567
Nuclear contribution   :     -0.06692      -2.42322      -1.42933
                        -----------------------------------------
Total Dipole Moment    :     -0.61642       0.04481      -1.03366
                        -----------------------------------------
Magnitude (a.u.)       :      1.20434
Magnitude (Debye)      :      3.06120


Timings for individual modules:

Sum of individual times         ...      846.562 sec (=  14.109 min)
GTO integral calculation        ...        2.610 sec (=   0.044 min)   0.3 %
SCF iterations                  ...      425.672 sec (=   7.095 min)  50.3 %
CIS module                      ...      418.280 sec (=   6.971 min)  49.4 %
                             ****ORCA TERMINATED NORMALLY****
TOTAL RUN TIME: 0 days 0 hours 14 minutes 7 seconds 326 msec
