
                                 *****************
                                 * O   R   C   A *
                                 *****************

           --- An Ab Initio, DFT and Semiempirical electronic structure package ---

                  #######################################################
                  #                        -***-                        #
                  #  Department of molecular theory and spectroscopy    #
                  #              Directorship: Frank Neese              #
                  # Max Planck Institute for Chemical Energy Conversion #
                  #                  D-45470 Muelheim/Ruhr              #
                  #                       Germany                       #
                  #                                                     #
                  #                  All rights reserved                #
                  #                        -***-                        #
                  #######################################################


                         Program Version 3.0.3 -  RELEASE  -


 With contributions from (in alphabetic order):
   Ute Becker             : Parallelization
   Dmytro Bykov           : SCF Hessian
   Dmitry Ganyushin       : Spin-Orbit,Spin-Spin,Magnetic field MRCI
   Andreas Hansen         : Spin unrestricted coupled pair/coupled cluster methods
   Dimitrios Liakos       : Extrapolation schemes; parallel MDCI
   Robert Izsak           : Overlap fitted RIJCOSX, COSX-SCS-MP3
   Christian Kollmar      : KDIIS, OOCD, Brueckner-CCSD(T), CCSD density
   Simone Kossmann        : Meta GGA functionals, TD-DFT gradient, OOMP2, MP2 Hessian
   Taras Petrenko         : DFT Hessian,TD-DFT gradient, ASA and ECA modules, normal mode analysis, Resonance Raman, ABS, FL, XAS/XES, NRVS
   Christoph Reimann      : Effective Core Potentials
   Michael Roemelt        : Restricted open shell CIS
   Christoph Riplinger    : Improved optimizer, TS searches, QM/MM, DLPNO-CCSD
   Barbara Sandhoefer     : DKH picture change effects
   Igor Schapiro          : Molecular dynamics
   Kantharuban Sivalingam : CASSCF convergence, NEVPT2
   Boris Wezisla          : Elementary symmetry handling
   Frank Wennmohs         : Technical directorship


 We gratefully acknowledge several colleagues who have allowed us to
 interface, adapt or use parts of their codes:
   Stefan Grimme, W. Hujo, H. Kruse, T. Risthaus : VdW corrections, initial TS optimization,
                                                   DFT functionals, gCP
   Ed Valeev                                     : LibInt (2-el integral package), F12 methods
   Garnet Chan, S. Sharma, R. Olivares           : DMRG
   Ulf Ekstrom                                   : XCFun DFT Library
   Mihaly Kallay                                 : mrcc  (arbitrary order and MRCC methods)
   Andreas Klamt, Michael Diedenhofen            : otool_cosmo (COSMO solvation model)
   Frank Weinhold                                : gennbo (NPA and NBO analysis)
   Christopher J. Cramer and Donald G. Truhlar   : smd solvation model


 Your calculation uses the libint2 library for the computation of 2-el integrals
 For citations please refer to: http://libint.valeyev.net

 This ORCA versions uses:
   CBLAS   interface :  Fast vector & matrix operations
   LAPACKE interface :  Fast linear algebra routines




*****************************************
The coordinations will be read from file: guess.xyz
*****************************************


leaving
================================================================================
                                        WARNINGS
                       Please study these warnings very carefully!
================================================================================
Now building the actual basis set

WARNING: Direct SCF is incompatible with Method<>HF and Method<>DFT
  ===> : conventional SCF is chosen

WARNING: The NDO methods need Guess=HUECKEL or Guess=HCORE or Guess=MOREAD
  ===> : Guess is set to Hueckel

WARNING: The NDO methods need %rel::SOCType==1
  ===> : %rel::SOCType is set to 1

WARNING: The NDO methods cannot have frozencore=1
  ===> : %method FrozenCore=0 end
INFO   : Checking CIS options ...


INFO   : the flag for use of LIBINT has been found!

================================================================================
                                       INPUT FILE
================================================================================
NAME = C:\Users\Jan\Documents\lib\ORCAunleashed\output\job_11_04_2018_j3\job_11_04_2018_j3.in
|  1> ! AM1  TightScf  cosmo(Acetonitrile) 
|  2> 
|  3> %tddft
|  4> 	mode riints
|  5> 	NRoots 10
|  6> 	MaxDim 200
|  7> 	triplets false
|  8> end
|  9> 
| 10> *xyzfile 0 1 guess.xyz
| 11> 
| 12> 
| 13> 
| 14>                          ****END OF INPUT****
================================================================================

                       ****************************
                       * Single Point Calculation *
                       ****************************

---------------------------------
CARTESIAN COORDINATES (ANGSTROEM)
---------------------------------
  C      7.757500    1.620650   -2.149430
  C      7.514370    2.346750   -3.323340
  C      8.515510    3.153720   -3.871940
  C      9.774750    3.236340   -3.264200
  N     10.762290    4.090790   -3.843580
  N     12.006160    3.912760   -3.805580
  C     12.668440    2.674100   -3.544580
  C     13.918650    2.698850   -2.913550
  C     14.609660    1.510120   -2.660850
  C     14.062490    0.279590   -3.049220
  C     12.821000    0.248910   -3.698920
  C     12.128800    1.436870   -3.951770
  C     10.010880    2.520360   -2.072830
  C      9.008780    1.714130   -1.525000
  H      6.549100    2.288610   -3.810570
  H      8.314050    3.712760   -4.777220
  H     14.353760    3.643510   -2.611950
  H     15.571620    1.547130   -2.165090
  H     12.393420   -0.694930   -4.013380
  H     11.181260    1.388640   -4.470690
  H     10.961810    2.590260   -1.562650
  H      9.204580    1.166350   -0.611690
  N      6.742170    0.804170   -1.592950
  H      5.819280    0.734180   -2.046230
  H      6.914480    0.270370   -0.728400
  N     14.763780   -0.924740   -2.794320
  H     15.678420   -0.907760   -2.319710
  H     14.367540   -1.832100   -3.080270

----------------------------
CARTESIAN COORDINATES (A.U.)
----------------------------
  NO LB      ZA    FRAG    MASS        X           Y           Z
   0 C     4.0000    0    12.011         14.659550483894110          3.062584658939477         -4.061834044034356
   1 C     4.0000    0    12.011         14.200101368953836          4.434714804779698         -6.280202449905852
   2 C     4.0000    0    12.011         16.091981790667759          5.959667103070130         -7.316906206975051
   3 C     4.0000    0    12.011         18.471600527546752          6.115796276254704         -6.168444046345750
   4 N     5.0000    0    14.007         20.337780673839347          7.730472771383718         -7.263313573817045
   5 N     5.0000    0    14.007         22.688354320039974          7.394044827761717         -7.191503980728037
   6 C     4.0000    0    12.011         23.939882144013342          5.053316654718819         -6.698285459774590
   7 C     4.0000    0    12.011         26.302436653903030          5.100087376533370         -5.505811577486263
   8 C     4.0000    0    12.011         27.608256309703954          2.853713229357160         -5.028277783444362
   9 C     4.0000    0    12.011         26.574254861006263          0.528348529783043         -5.762190722075359
  10 C     4.0000    0    12.011         24.228178763004369          0.470371731994339         -6.989945791283996
  11 C     4.0000    0    12.011         22.920110333104077          2.715290790047429         -7.467763044245984
  12 C     4.0000    0    12.011         18.917821559549580          4.762790158889766         -3.917081022175988
  13 C     4.0000    0    12.011         17.024127000747093          3.239236257938435         -2.881832354229909
  14 H     1.0000    0     1.008         12.376005423663669          4.324846127353515         -7.200933714136304
  15 H     1.0000    0     1.008         15.711277563727982          7.016099600977466         -9.027637481491281
  16 H     1.0000    0     1.008         27.124675392033502          6.885236066203420         -4.935870175495614
  17 H     1.0000    0     1.008         29.426097261490838          2.923651993573586         -4.091427155291563
  18 H     1.0000    0     1.008         23.420169662662321         -1.313227382245896         -7.584189071356873
  19 H     1.0000    0     1.008         21.129519232168334          2.624149298608407         -8.448379729660401
  20 H     1.0000    0     1.008         20.714818832079317          4.894882015650861         -2.952980543172044
  21 H     1.0000    0     1.008         17.394135377768876          2.204082076299052         -1.155926578858290
  22 N     5.0000    0    14.007         12.740854848339845          1.519661065115453         -3.010239245029858
  23 H     1.0000    0     1.008         10.996845496605262          1.387399133002305         -3.866814307013683
  24 H     1.0000    0     1.008         13.066473558475817          0.510925254828289         -1.376476515948240
  25 N     5.0000    0    14.007         27.899500901463899         -1.747505345082338         -5.280499530538831
  26 H     1.0000    0     1.008         29.627920012593627         -1.715417795328355         -4.383616610118467
  27 H     1.0000    0     1.008         27.150715818158940         -3.462167249957125         -5.820866718533614

--------------------------------
INTERNAL COORDINATES (ANGSTROEM)
--------------------------------
 C      0   0   0   0.000000     0.000     0.000
 C      1   0   0   1.401570     0.000     0.000
 C      2   1   0   1.398014   120.231     0.000
 C      3   2   1   1.400664   120.504     0.621
 N      4   3   2   1.428636   118.735   181.091
 N      5   4   3   1.257120   125.945   210.428
 C      6   5   4   1.428641   125.944    19.778
 C      7   6   5   1.400656   118.736   210.432
 C      8   7   6   1.398010   120.504   181.090
 C      9   8   7   1.401581   120.230     0.621
 C     10   9   8   1.401552   119.569     0.329
 C     11  10   9   1.397971   120.254   359.649
 C      4   3   2   1.409875   119.161   358.473
 C     13   4   3   1.397973   120.262     1.501
 H      2   1   3   1.082829   120.245   180.146
 H      3   2   1   1.082887   119.526   180.233
 H      8   7   6   1.082897   119.969     1.481
 H      9   8   7   1.082827   119.525   180.476
 H     11  10   9   1.082841   120.230   179.325
 H     12  11  10   1.081405   118.865   178.888
 H     13   4   3   1.081405   120.871   182.054
 H     14  13   4   1.082837   119.515   179.752
 N      1   2   3   1.416758   120.214   179.928
 H     23   1   2   1.030576   120.541     0.202
 H     23   1   2   1.030573   120.543   180.188
 N     10   9   8   1.416754   120.213   179.928
 H     26  10   9   1.030587   120.541     0.202
 H     26  10   9   1.030571   120.543   180.188

---------------------------
INTERNAL COORDINATES (A.U.)
---------------------------
 C      0   0   0   0.000000     0.000     0.000
 C      1   0   0   2.648583     0.000     0.000
 C      2   1   0   2.641864   120.231     0.000
 C      3   2   1   2.646871   120.504     0.621
 N      4   3   2   2.699731   118.735   181.091
 N      5   4   3   2.375613   125.945   210.428
 C      6   5   4   2.699740   125.944    19.778
 C      7   6   5   2.646856   118.736   210.432
 C      8   7   6   2.641855   120.504   181.090
 C      9   8   7   2.648605   120.230     0.621
 C     10   9   8   2.648550   119.569     0.329
 C     11  10   9   2.641782   120.254   359.649
 C      4   3   2   2.664277   119.161   358.473
 C     13   4   3   2.641786   120.262     1.501
 H      2   1   3   2.046251   120.245   180.146
 H      3   2   1   2.046359   119.526   180.233
 H      8   7   6   2.046379   119.969     1.481
 H      9   8   7   2.046247   119.525   180.476
 H     11  10   9   2.046272   120.230   179.325
 H     12  11  10   2.043559   118.865   178.888
 H     13   4   3   2.043560   120.871   182.054
 H     14  13   4   2.046265   119.515   179.752
 N      1   2   3   2.677286   120.214   179.928
 H     23   1   2   1.947507   120.541     0.202
 H     23   1   2   1.947500   120.543   180.188
 N     10   9   8   2.677277   120.213   179.928
 H     26  10   9   1.947527   120.541     0.202
 H     26  10   9   1.947496   120.543   180.188

----------------------------
SLATER BASIS SET DIM=  76
----------------------------
  0 C     2 shells
 l=0 nsto= 1
    2       1.808665000000        1.000000000000
 l=1 nsto= 1
    2       1.685116000000        1.000000000000
  1 C     2 shells
 l=0 nsto= 1
    2       1.808665000000        1.000000000000
 l=1 nsto= 1
    2       1.685116000000        1.000000000000
  2 C     2 shells
 l=0 nsto= 1
    2       1.808665000000        1.000000000000
 l=1 nsto= 1
    2       1.685116000000        1.000000000000
  3 C     2 shells
 l=0 nsto= 1
    2       1.808665000000        1.000000000000
 l=1 nsto= 1
    2       1.685116000000        1.000000000000
  4 N     2 shells
 l=0 nsto= 1
    2       2.315410000000        1.000000000000
 l=1 nsto= 1
    2       2.157940000000        1.000000000000
  5 N     2 shells
 l=0 nsto= 1
    2       2.315410000000        1.000000000000
 l=1 nsto= 1
    2       2.157940000000        1.000000000000
  6 C     2 shells
 l=0 nsto= 1
    2       1.808665000000        1.000000000000
 l=1 nsto= 1
    2       1.685116000000        1.000000000000
  7 C     2 shells
 l=0 nsto= 1
    2       1.808665000000        1.000000000000
 l=1 nsto= 1
    2       1.685116000000        1.000000000000
  8 C     2 shells
 l=0 nsto= 1
    2       1.808665000000        1.000000000000
 l=1 nsto= 1
    2       1.685116000000        1.000000000000
  9 C     2 shells
 l=0 nsto= 1
    2       1.808665000000        1.000000000000
 l=1 nsto= 1
    2       1.685116000000        1.000000000000
 10 C     2 shells
 l=0 nsto= 1
    2       1.808665000000        1.000000000000
 l=1 nsto= 1
    2       1.685116000000        1.000000000000
 11 C     2 shells
 l=0 nsto= 1
    2       1.808665000000        1.000000000000
 l=1 nsto= 1
    2       1.685116000000        1.000000000000
 12 C     2 shells
 l=0 nsto= 1
    2       1.808665000000        1.000000000000
 l=1 nsto= 1
    2       1.685116000000        1.000000000000
 13 C     2 shells
 l=0 nsto= 1
    2       1.808665000000        1.000000000000
 l=1 nsto= 1
    2       1.685116000000        1.000000000000
 14 H     1 shells
 l=0 nsto= 1
    1       1.188078000000        1.000000000000
 15 H     1 shells
 l=0 nsto= 1
    1       1.188078000000        1.000000000000
 16 H     1 shells
 l=0 nsto= 1
    1       1.188078000000        1.000000000000
 17 H     1 shells
 l=0 nsto= 1
    1       1.188078000000        1.000000000000
 18 H     1 shells
 l=0 nsto= 1
    1       1.188078000000        1.000000000000
 19 H     1 shells
 l=0 nsto= 1
    1       1.188078000000        1.000000000000
 20 H     1 shells
 l=0 nsto= 1
    1       1.188078000000        1.000000000000
 21 H     1 shells
 l=0 nsto= 1
    1       1.188078000000        1.000000000000
 22 N     2 shells
 l=0 nsto= 1
    2       2.315410000000        1.000000000000
 l=1 nsto= 1
    2       2.157940000000        1.000000000000
 23 H     1 shells
 l=0 nsto= 1
    1       1.188078000000        1.000000000000
 24 H     1 shells
 l=0 nsto= 1
    1       1.188078000000        1.000000000000
 25 N     2 shells
 l=0 nsto= 1
    2       2.315410000000        1.000000000000
 l=1 nsto= 1
    2       2.157940000000        1.000000000000
 26 H     1 shells
 l=0 nsto= 1
    1       1.188078000000        1.000000000000
 27 H     1 shells
 l=0 nsto= 1
    1       1.188078000000        1.000000000000
------------------------------------------------------------------------------
                           ORCA NDO INTEGRAL CALCULATION
------------------------------------------------------------------------------

--------------
NDO PARAMETERS
--------------

Gamma integral treatment              ... MOPAC
Nuclear repulsuion treatment          ... AM1-style
Interaction factors:
s-s (sigma) =    1.0000
s-p (sigma) =    1.0000
s-d (sigma) =    1.0000
p-p (sigma) =    1.0000  p-p(pi) =    1.0000
p-d (sigma) =    1.0000  p-d(pi) =    1.0000
d-d (sigma) =    1.0000  d-d(pi) =    1.0000 d-d (delta) =    1.0000

--------------------------
Parameters for Element H :
--------------------------
 One-electron parameters (in eV)
  U(s)  =   -11.396427 Beta(s) =     6.173787 Neff(s) =     1.000000
 One-center electron repulsion parameters (in eV)
  G(s,s)=    12.848000
--------------------------
Parameters for Element C :
--------------------------
 One-electron parameters (in eV)
  U(s)  =   -52.028658 Beta(s) =    15.715783 Neff(s) =     2.000000
  U(p)  =   -39.614239 Beta(p) =     7.719283 Neff(p) =     2.000000 
 One-center electron repulsion parameters (in eV)
  G(s,s)=    12.230000
  G(s,p)=    11.470000 G(p,p)  =    10.253300
 Slater-Condon parameters (in eV)
 F2(p,p)=     5.1667 G1(s,p)=    7.2900
--------------------------
Parameters for Element N :
--------------------------
 One-electron parameters (in eV)
  U(s)  =   -71.860000 Beta(s) =    20.299110 Neff(s) =     2.000000
  U(p)  =   -57.167581 Beta(p) =    18.238666 Neff(p) =     3.000000 
 One-center electron repulsion parameters (in eV)
  G(s,s)=    13.590000
  G(s,p)=    12.660000 G(p,p)  =    12.053330
 Slater-Condon parameters (in eV)
 F2(p,p)=     5.7917 G1(s,p)=    9.4200

 Number of atoms                    ....   28
 Number of basis functions          ....   76

 Overlap integrals                  .... done
 One electron matrix                .... done
 Nuclear repulsion                  .... done
 Integral list                      .... done
 Electron-electron repulsion        .... done
-------------------------------------------------------------------------------
                                 ORCA SCF
-------------------------------------------------------------------------------

------------
SCF SETTINGS
------------
Hamiltonian:
 ZDO-Hamiltonian        Method          .... NDDO


General Settings:
 Integral files         IntName         .... C:\Users\Jan\Documents\lib\ORCAunleashed\output\job_11_04_2018_j3\job_11_04_2018_j3
 Hartree-Fock type      HFTyp           .... RHF
 Total Charge           Charge          ....    0
 Multiplicity           Mult            ....    1
 Number of Electrons    NEL             ....   80
 Basis Dimension        Dim             ....   76
 Nuclear Repulsion      ENuc            ....    452.6092491756 Eh

Convergence Acceleration:
 DIIS                   CNVDIIS         .... on
   Start iteration      DIISMaxIt       ....    12
   Startup error        DIISStart       ....  0.200000
   # of expansion vecs  DIISMaxEq       ....     5
   Bias factor          DIISBfac        ....   1.050
   Max. coefficient     DIISMaxC        ....  10.000
 Newton-Raphson         CNVNR           .... off
 SOSCF                  CNVSOSCF        .... on
   Start iteration      SOSCFMaxIt      ....   150
   Startup grad/error   SOSCFStart      ....  0.003300
 Level Shifting         CNVShift        .... on
   Level shift para.    LevelShift      ....    0.2500
   Turn off err/grad.   ShiftErr        ....    0.0010
 Zerner damping         CNVZerner       .... off
 Static damping         CNVDamp         .... on
   Fraction old density DampFac         ....    0.7000
   Max. Damping (<1)    DampMax         ....    0.9800
   Min. Damping (>=0)   DampMin         ....    0.0000
   Turn off err/grad.   DampErr         ....    0.1000
 Fernandez-Rico         CNVRico         .... off

SCF Procedure:
 Maximum # iterations   MaxIter         ....   125
 SCF integral mode      SCFMode         .... Conventional
 Integral Buffer length BufferLength    .... 1048576
 Integral index format  IndFormat       ....     0
 Integral value format  ValFormat       ....     0
 Integral Storage       Thresh          .... 2.500e-011 Eh

Convergence Tolerance:
 Convergence Check Mode ConvCheckMode   .... Total+1el-Energy
 Energy Change          TolE            .... 1.000e-008 Eh
 1-El. energy change                    .... 1.000e-005 Eh
 Orbital Gradient       TolG            .... 1.000e-005
 Orbital Rotation angle TolX            .... 1.000e-005
 DIIS Error             TolErr          .... 5.000e-007


Diagonalization of the overlap matrix:
Smallest eigenvalue                        ... 2.167e-001
Time for diagonalization                   ...    0.000 sec
Threshold for overlap eigenvalues          ... 1.000e-008
Number of eigenvalues below threshold      ... 0
Time for construction of square roots      ...    0.015 sec
Total time needed                          ...    0.015 sec

-------------------------------
INITIAL GUESS: EXTENDED HUECKEL
-------------------------------
EHT matrix was read from disk
EHT matrix was diagonalized
Initial density was built
                      ------------------
                      INITIAL GUESS DONE
                      ------------------

 InCore treatment chosen:
   Memory dedicated               ...    1024 MB
   Memory needed                  ...      0 MB
   Number of tiny    integrals    ...       0
   Number of small   integrals    ...     124
   Number of regular integrals    ...   14130


--------------------
COSMO INITIALIZATION
--------------------

Epsilon                                      ...   36.6000
Refractive Index                             ...    1.3440
Potential Evaluation                         ...  ANALYTIC
Technical COSMO parameters:
  rsolv                                      ...    1.3000
  routf                                      ...    0.8500
  disex                                      ...   10.0000
  nppa                                       ... 1082   
  nspa                                       ...   92   
Radii:
 Radius for C  used is    3.7795 Bohr (=   2.0000 Ang.)
 Radius for N  used is    3.4582 Bohr (=   1.8300 Ang.)
 Radius for H  used is    2.4566 Bohr (=   1.3000 Ang.)
Initializing COSMO package            ... done
Setting COSMO radii                   ... done
Setting atoms and making cavity       ...  USING 1082 GRID
done
Cholesky decomposition of A           ... done
--------------
SCF ITERATIONS
--------------
ITER       Energy         Delta-E        Max-DP      RMS-DP      [F,P]     Damp
  0   -193.0056682528   0.000000000000 0.17334492  0.00962211  2.3073058 0.7000
  1   -197.4262307002  -4.420562447391 0.12908706  0.00730083  1.7018889 0.7000
  2   -200.6637452940  -3.237514593746 0.09217092  0.00524654  1.2307575 0.7000
  3   -202.9984391476  -2.334693853616 0.06564938  0.00375013  0.8853458 0.7000
  4   -204.6671376912  -1.668698543582 0.04673846  0.00267809  0.6348373 0.7000
  5   -205.8525414142  -1.185403722990 0.03326724  0.00191213  0.4542181 0.7000
  6   -206.6910363424  -0.838494928269 0.02367513  0.00136524  0.3244976 0.7000
  7   -207.2823675399  -0.591331197509 0.01684702  0.00097485  0.2315818 0.7000
                               ***Turning on DIIS***
  8   -207.6985069168  -0.416139376823 0.01198738  0.00069620  0.1651514 0.7000
  9   -208.6445493619  -0.946042445139 0.00873240  0.00051160  0.1177178 0.7000
 10   -208.8276532621  -0.183103900228 0.02103154  0.00122102  0.0830380 0.0000
                      *** Initiating the SOSCF procedure ***
                           *** Shutting down DIIS ***
                      *** Re-Reading the Fockian *** 
                      *** Removing any level shift *** 
ITER      Energy       Delta-E        Grad      Rot      Max-DP    RMS-DP
 11   -208.68107503   0.1465782367  0.000629  0.000629  0.000304  0.000015
 12   -208.67697579   0.0040992373  0.000048  0.000050  0.000036  0.000002
 13   -208.67697580  -0.0000000125  0.000009  0.000012  0.000009  0.000000
                 **** Energy Check signals convergence ****
              ***Rediagonalizing the Fockian in SOSCF/NRSCF***

               *****************************************************
               *                     SUCCESS                       *
               *           SCF CONVERGED AFTER  14 CYCLES          *
               *****************************************************

   7.13061552548970        2.60708506571152      -0.526489904008763     
  4.427255782216547E-002  0.278736501612404       0.158833010983716     
Total Energy after outlying charge correction =   -208.976569287 Eh

----------------
TOTAL SCF ENERGY
----------------

Total Energy       :         -208.67697580 Eh           -5678.38920 eV
Total Energy       :         -208.67697580 Eh           -5678.38920 eV
COSMO(ediel)       :         -117.25325258 Eh           -3190.62321 eV

Components:
Nuclear Repulsion  :          452.60924918 Eh           12316.12381 eV
Electronic Energy  :         -661.28622498 Eh          -17994.51300 eV

One Electron Energy:        -1032.03275422 Eh          -28083.03896 eV
Two Electron Energy:          370.74652924 Eh           10088.52595 eV


---------------
SCF CONVERGENCE
---------------

  Last Energy change         ...  -3.8173e-010  Tolerance :  1.0000e-008
  Last MAX-Density change    ...   5.2623e-007  Tolerance :  1.0000e-007
  Last RMS-Density change    ...   2.8316e-008  Tolerance :  5.0000e-009
  Last Orbital Gradient      ...   4.1039e-007  Tolerance :  1.0000e-005
  Last Orbital Rotation      ...   8.7306e-007  Tolerance :  1.0000e-005

             **** THE GBW FILE WAS UPDATED (C:\Users\Jan\Documents\lib\ORCAunleashed\output\job_11_04_2018_j3\job_11_04_2018_j3.gbw) ****
             **** DENSITY FILE WAS UPDATED (C:\Users\Jan\Documents\lib\ORCAunleashed\output\job_11_04_2018_j3\job_11_04_2018_j3.scfp.tmp) ****
             **** ENERGY FILE WAS UPDATED (C:\Users\Jan\Documents\lib\ORCAunleashed\output\job_11_04_2018_j3\job_11_04_2018_j3.en.tmp) ****
----------------
ORBITAL ENERGIES
----------------

  NO   OCC          E(Eh)            E(eV) 
   0   2.0000     -14.937942      -406.4821 
   1   2.0000     -14.782441      -402.2507 
   2   2.0000     -13.186111      -358.8123 
   3   2.0000     -12.870866      -350.2341 
   4   2.0000     -12.541374      -341.2681 
   5   2.0000     -12.073979      -328.5497 
   6   2.0000     -11.606754      -315.8358 
   7   2.0000     -11.347663      -308.7856 
   8   2.0000     -11.303500      -307.5839 
   9   2.0000     -11.285343      -307.0898 
  10   2.0000     -11.220231      -305.3180 
  11   2.0000     -10.987224      -298.9776 
  12   2.0000     -10.213163      -277.9143 
  13   2.0000      -9.362874      -254.7768 
  14   2.0000      -9.303166      -253.1520 
  15   2.0000      -9.285580      -252.6735 
  16   2.0000      -9.163733      -249.3578 
  17   2.0000      -9.036163      -245.8865 
  18   2.0000      -8.915426      -242.6011 
  19   2.0000      -8.478739      -230.7182 
  20   2.0000      -8.413880      -228.9533 
  21   2.0000      -8.355372      -227.3612 
  22   2.0000      -8.338248      -226.8953 
  23   2.0000      -7.970573      -216.8903 
  24   2.0000      -7.947699      -216.2679 
  25   2.0000      -7.412232      -201.6971 
  26   2.0000      -7.357476      -200.2071 
  27   2.0000      -7.187114      -195.5713 
  28   2.0000      -7.173370      -195.1973 
  29   2.0000      -7.071417      -192.4230 
  30   2.0000      -7.039651      -191.5586 
  31   2.0000      -7.023754      -191.1261 
  32   2.0000      -6.961761      -189.4391 
  33   2.0000      -6.717231      -182.7852 
  34   2.0000      -6.692421      -182.1100 
  35   2.0000      -6.442533      -175.3102 
  36   2.0000      -6.199546      -168.6982 
  37   2.0000      -5.397966      -146.8861 
  38   2.0000      -5.372912      -146.2044 
  39   2.0000      -5.133384      -139.6865 
  40   0.0000      -4.689397      -127.6050 
  41   0.0000      -4.260008      -115.9207 
  42   0.0000      -4.198679      -114.2519 
  43   0.0000      -3.960597      -107.7733 
  44   0.0000      -3.869039      -105.2819 
  45   0.0000      -3.137676       -85.3805 
  46   0.0000      -3.127184       -85.0950 
  47   0.0000      -2.373239       -64.5791 
  48   0.0000      -2.307245       -62.7833 
  49   0.0000      -2.149980       -58.5039 
  50   0.0000      -2.147702       -58.4419 
  51   0.0000      -2.081867       -56.6505 
  52   0.0000      -1.994032       -54.2604 
  53   0.0000      -1.973032       -53.6889 
  54   0.0000      -1.951535       -53.1040 
  55   0.0000      -1.938247       -52.7424 
  56   0.0000      -1.801694       -49.0266 
  57   0.0000      -1.783762       -48.5386 
  58   0.0000      -1.620954       -44.1084 
  59   0.0000      -1.592007       -43.3207 
  60   0.0000      -1.539241       -41.8849 
  61   0.0000      -1.534416       -41.7536 
  62   0.0000      -1.447758       -39.3955 
  63   0.0000      -1.445149       -39.3245 
  64   0.0000      -1.370374       -37.2898 
  65   0.0000      -1.368140       -37.2290 
  66   0.0000      -1.332984       -36.2723 
  67   0.0000      -1.328139       -36.1405 
  68   0.0000      -1.298120       -35.3236 
  69   0.0000      -1.286963       -35.0200 
  70   0.0000      -1.248935       -33.9852 
  71   0.0000      -1.247198       -33.9380 
  72   0.0000      -1.240310       -33.7506 
  73   0.0000      -1.239558       -33.7301 
  74   0.0000      -1.025718       -27.9112 
  75   0.0000      -1.025607       -27.9082 

                    ********************************
                    * MULLIKEN POPULATION ANALYSIS *
                    ********************************

-----------------------
MULLIKEN ATOMIC CHARGES
-----------------------
   0 C :    0.025565
   1 C :   -0.103200
   2 C :   -0.078961
   3 C :   -0.093768
   4 N :   -0.051677
   5 N :   -0.052435
   6 C :   -0.093766
   7 C :   -0.078219
   8 C :   -0.104170
   9 C :    0.026107
  10 C :   -0.169337
  11 C :   -0.141942
  12 C :   -0.141952
  13 C :   -0.169242
  14 H :    0.075027
  15 H :    0.062867
  16 H :    0.062790
  17 H :    0.075083
  18 H :    0.050570
  19 H :    0.015147
  20 H :    0.015162
  21 H :    0.050577
  22 N :    0.163045
  23 H :    0.132015
  24 H :    0.114921
  25 N :    0.162904
  26 H :    0.131992
  27 H :    0.114896
Sum of atomic charges:   -0.0000000

--------------------------------
MULLIKEN REDUCED ORBITAL CHARGES
--------------------------------
  0 C s       :     0.907943  s :     0.907943
      pz      :     1.035027  p :     3.066492
      px      :     1.012917
      py      :     1.018548
  1 C s       :     0.888183  s :     0.888183
      pz      :     1.066631  p :     3.215018
      px      :     1.099146
      py      :     1.049241
  2 C s       :     0.884188  s :     0.884188
      pz      :     1.089133  p :     3.194774
      px      :     1.051049
      py      :     1.054592
  3 C s       :     0.915046  s :     0.915046
      pz      :     1.064024  p :     3.178722
      px      :     1.051461
      py      :     1.063236
  4 N s       :     1.211888  s :     1.211888
      pz      :     1.165165  p :     3.839789
      px      :     1.103904
      py      :     1.570720
  5 N s       :     1.211938  s :     1.211938
      pz      :     1.144348  p :     3.840498
      px      :     1.246027
      py      :     1.450122
  6 C s       :     0.915036  s :     0.915036
      pz      :     1.106237  p :     3.178730
      px      :     1.072692
      py      :     0.999801
  7 C s       :     0.884105  s :     0.884105
      pz      :     1.040075  p :     3.194113
      px      :     1.048722
      py      :     1.105316
  8 C s       :     0.888282  s :     0.888282
      pz      :     1.059644  p :     3.215888
      px      :     1.098366
      py      :     1.057878
  9 C s       :     0.907862  s :     0.907862
      pz      :     1.021954  p :     3.066030
      px      :     1.023989
      py      :     1.020087
 10 C s       :     0.885094  s :     0.885094
      pz      :     1.107906  p :     3.284242
      px      :     1.093661
      py      :     1.082676
 11 C s       :     0.879694  s :     0.879694
      pz      :     1.098033  p :     3.262248
      px      :     1.082419
      py      :     1.081796
 12 C s       :     0.879693  s :     0.879693
      pz      :     1.095770  p :     3.262258
      px      :     1.083956
      py      :     1.082532
 13 C s       :     0.885087  s :     0.885087
      pz      :     1.103274  p :     3.284155
      px      :     1.081875
      py      :     1.099005
 14 H s       :     0.924973  s :     0.924973
 15 H s       :     0.937133  s :     0.937133
 16 H s       :     0.937210  s :     0.937210
 17 H s       :     0.924917  s :     0.924917
 18 H s       :     0.949430  s :     0.949430
 19 H s       :     0.984853  s :     0.984853
 20 H s       :     0.984838  s :     0.984838
 21 H s       :     0.949423  s :     0.949423
 22 N s       :     0.910151  s :     0.910151
      pz      :     1.314456  p :     3.926804
      px      :     1.217068
      py      :     1.395280
 23 H s       :     0.867985  s :     0.867985
 24 H s       :     0.885079  s :     0.885079
 25 N s       :     0.910148  s :     0.910148
      pz      :     1.495456  p :     3.926948
      px      :     1.284020
      py      :     1.147471
 26 H s       :     0.868008  s :     0.868008
 27 H s       :     0.885104  s :     0.885104


                     *******************************
                     * LOEWDIN POPULATION ANALYSIS *
                     *******************************

----------------------
LOEWDIN ATOMIC CHARGES
----------------------
   0 C :    0.030344
   1 C :   -0.091177
   2 C :   -0.066725
   3 C :   -0.090867
   4 N :   -0.050831
   5 N :   -0.051547
   6 C :   -0.090868
   7 C :   -0.066069
   8 C :   -0.092036
   9 C :    0.030806
  10 C :   -0.156939
  11 C :   -0.132077
  12 C :   -0.132092
  13 C :   -0.156856
  14 H :    0.057402
  15 H :    0.047881
  16 H :    0.047825
  17 H :    0.057441
  18 H :    0.038698
  19 H :    0.012357
  20 H :    0.012369
  21 H :    0.038703
  22 N :    0.186207
  23 H :    0.115117
  24 H :    0.100895
  25 N :    0.186068
  26 H :    0.115099
  27 H :    0.100874

-------------------------------
LOEWDIN REDUCED ORBITAL CHARGES
-------------------------------
  0 C s       :     0.892133  s :     0.892133
      pz      :     1.039708  p :     3.077523
      px      :     1.019275
      py      :     1.018540
  1 C s       :     0.867283  s :     0.867283
      pz      :     1.071819  p :     3.223894
      px      :     1.097455
      py      :     1.054619
  2 C s       :     0.863985  s :     0.863985
      pz      :     1.087096  p :     3.202740
      px      :     1.060719
      py      :     1.054925
  3 C s       :     0.900973  s :     0.900973
      pz      :     1.069182  p :     3.189894
      px      :     1.054964
      py      :     1.065749
  4 N s       :     1.199852  s :     1.199852
      pz      :     1.166260  p :     3.850979
      px      :     1.111678
      py      :     1.573041
  5 N s       :     1.199889  s :     1.199889
      pz      :     1.145005  p :     3.851658
      px      :     1.252512
      py      :     1.454141
  6 C s       :     0.900963  s :     0.900963
      pz      :     1.106435  p :     3.189905
      px      :     1.075997
      py      :     1.007473
  7 C s       :     0.863931  s :     0.863931
      pz      :     1.041894  p :     3.202137
      px      :     1.056561
      py      :     1.103681
  8 C s       :     0.867347  s :     0.867347
      pz      :     1.059487  p :     3.224689
      px      :     1.095598
      py      :     1.069604
  9 C s       :     0.892080  s :     0.892080
      pz      :     1.023103  p :     3.077114
      px      :     1.031188
      py      :     1.022823
 10 C s       :     0.865482  s :     0.865482
      pz      :     1.108518  p :     3.291457
      px      :     1.096890
      py      :     1.086050
 11 C s       :     0.862321  s :     0.862321
      pz      :     1.098032  p :     3.269755
      px      :     1.085145
      py      :     1.086578
 12 C s       :     0.862322  s :     0.862322
      pz      :     1.098914  p :     3.269770
      px      :     1.087263
      py      :     1.083594
 13 C s       :     0.865478  s :     0.865478
      pz      :     1.102645  p :     3.291378
      px      :     1.088031
      py      :     1.100703
 14 H s       :     0.942598  s :     0.942598
 15 H s       :     0.952119  s :     0.952119
 16 H s       :     0.952175  s :     0.952175
 17 H s       :     0.942559  s :     0.942559
 18 H s       :     0.961302  s :     0.961302
 19 H s       :     0.987643  s :     0.987643
 20 H s       :     0.987631  s :     0.987631
 21 H s       :     0.961297  s :     0.961297
 22 N s       :     0.883649  s :     0.883649
      pz      :     1.313175  p :     3.930144
      px      :     1.218128
      py      :     1.398842
 23 H s       :     0.884883  s :     0.884883
 24 H s       :     0.899105  s :     0.899105
 25 N s       :     0.883646  s :     0.883646
      pz      :     1.495850  p :     3.930285
      px      :     1.282115
      py      :     1.152321
 26 H s       :     0.884901  s :     0.884901
 27 H s       :     0.899126  s :     0.899126


                      *****************************
                      * MAYER POPULATION ANALYSIS *
                      *****************************

  NA   - Mulliken gross atomic population
  ZA   - Total nuclear charge
  QA   - Mulliken gross atomic charge
  VA   - Mayer's total valence
  BVA  - Mayer's bonded valence
  FA   - Mayer's free valence

  ATOM       NA         ZA         QA         VA         BVA        FA
  0 C      3.9744     4.0000     0.0256     3.9886     3.9886    -0.0000
  1 C      4.1032     4.0000    -0.1032     3.9670     3.9670    -0.0000
  2 C      4.0790     4.0000    -0.0790     3.9690     3.9690    -0.0000
  3 C      4.0938     4.0000    -0.0938     3.9734     3.9734    -0.0000
  4 N      5.0517     5.0000    -0.0517     3.1392     3.1392    -0.0000
  5 N      5.0524     5.0000    -0.0524     3.1391     3.1391     0.0000
  6 C      4.0938     4.0000    -0.0938     3.9734     3.9734     0.0000
  7 C      4.0782     4.0000    -0.0782     3.9690     3.9690     0.0000
  8 C      4.1042     4.0000    -0.1042     3.9670     3.9670     0.0000
  9 C      3.9739     4.0000     0.0261     3.9886     3.9886     0.0000
 10 C      4.1693     4.0000    -0.1693     3.9574     3.9574     0.0000
 11 C      4.1419     4.0000    -0.1419     3.9619     3.9619     0.0000
 12 C      4.1420     4.0000    -0.1420     3.9619     3.9619    -0.0000
 13 C      4.1692     4.0000    -0.1692     3.9574     3.9574    -0.0000
 14 H      0.9250     1.0000     0.0750     0.9944     0.9944    -0.0000
 15 H      0.9371     1.0000     0.0629     0.9960     0.9960    -0.0000
 16 H      0.9372     1.0000     0.0628     0.9961     0.9961     0.0000
 17 H      0.9249     1.0000     0.0751     0.9944     0.9944     0.0000
 18 H      0.9494     1.0000     0.0506     0.9974     0.9974     0.0000
 19 H      0.9849     1.0000     0.0151     0.9998     0.9998     0.0000
 20 H      0.9848     1.0000     0.0152     0.9998     0.9998    -0.0000
 21 H      0.9494     1.0000     0.0506     0.9974     0.9974    -0.0000
 22 N      4.8370     5.0000     0.1630     3.5953     3.5953     0.0000
 23 H      0.8680     1.0000     0.1320     0.9826     0.9826    -0.0000
 24 H      0.8851     1.0000     0.1149     0.9868     0.9868    -0.0000
 25 N      4.8371     5.0000     0.1629     3.5951     3.5951    -0.0000
 26 H      0.8680     1.0000     0.1320     0.9826     0.9826     0.0000
 27 H      0.8851     1.0000     0.1149     0.9868     0.9868     0.0000

  Mayer bond orders larger than 0.1
B(  0-C ,  1-C ) :   1.2806 B(  0-C , 13-C ) :   1.2814 B(  0-C , 22-N ) :   1.3085 
B(  1-C ,  2-C ) :   1.4965 B(  1-C , 14-H ) :   0.9612 B(  2-C ,  3-C ) :   1.3186 
B(  2-C , 15-H ) :   0.9640 B(  3-C ,  4-N ) :   1.1177 B(  3-C , 12-C ) :   1.3234 
B(  4-N ,  5-N ) :   1.7378 B(  5-N ,  6-C ) :   1.1175 B(  6-C ,  7-C ) :   1.3187 
B(  6-C , 11-C ) :   1.3234 B(  7-C ,  8-C ) :   1.4964 B(  7-C , 16-H ) :   0.9640 
B(  8-C ,  9-C ) :   1.2806 B(  8-C , 17-H ) :   0.9612 B(  9-C , 10-C ) :   1.2813 
B(  9-C , 25-N ) :   1.3086 B( 10-C , 11-C ) :   1.4679 B( 10-C , 18-H ) :   0.9651 
B( 11-C , 19-H ) :   0.9664 B( 12-C , 13-C ) :   1.4679 B( 12-C , 20-H ) :   0.9664 
B( 13-C , 21-H ) :   0.9651 B( 22-N , 23-H ) :   0.9536 B( 22-N , 24-H ) :   0.9584 
B( 25-N , 26-H ) :   0.9536 B( 25-N , 27-H ) :   0.9584 

-------
TIMINGS
-------

Total SCF time: 0 days 0 hours 0 min 19 sec 

Total time                  ....      19.270 sec
Sum of individual times     ....      23.394 sec  (121.4%)

Fock matrix formation       ....       0.125 sec  (  0.6%)
Diagonalization             ....       0.031 sec  (  0.2%)
Density matrix formation    ....       0.000 sec  (  0.0%)
Population analysis         ....       0.031 sec  (  0.2%)
Initial guess               ....       0.000 sec  (  0.0%)
Orbital Transformation      ....       0.000 sec  (  0.0%)
Orbital Orthonormalization  ....       0.000 sec  (  0.0%)
DIIS solution               ....       0.064 sec  (  0.3%)
SOSCF solution              ....       0.000 sec  (  0.0%)
COSMO(total)                ....      23.143 sec  (120.1%)
   Initialization           ....       5.047 sec  ( 21.8% of COSMO)
   Potential evaluation     ....       9.377 sec  ( 40.5% of COSMO)
   Charge calculation       ....       1.500 sec  (  6.5% of COSMO)
   Fock-Matrix contrib.     ....       7.517 sec  ( 32.5% of COSMO)
   Outer-lying charge       ....       0.640 sec  (  2.8% of COSMO)
------------------------------------------------------------------------------
                         ORCA CIS CALCULATION
------------------------------------------------------------------------------

Input orbitals are from        ... C:\Users\Jan\Documents\lib\ORCAunleashed\output\job_11_04_2018_j3\job_11_04_2018_j3.gbw
CI-vector output               ... C:\Users\Jan\Documents\lib\ORCAunleashed\output\job_11_04_2018_j3\job_11_04_2018_j3.cis
Tamm-Dancoff approximation     ... operative
CIS-Integral strategy          ... RI-integrals
Integral files                 ... C:\Users\Jan\Documents\lib\ORCAunleashed\output\job_11_04_2018_j3\job_11_04_2018_j3
Reference state                ... RHF
Generation of triplets         ... off
Number of operators            ... 1
Orbital ranges used for CIS calculation:
 Operator 0:  Orbitals   0... 39  to  40... 75
XAS localization array:
 Operator 0:  Orbitals  -1... -1
-------------------
XC-INTEGRATION GRID
-------------------

General Integration Accuracy     IntAcc      ...  3.670
Radial Grid Type                 RadialGrid  ... Gauss-Chebyshev
Angular Grid (max. acc.)         AngularGrid ... Lebedev-50
Angular grid pruning method      GridPruning ... 3 (G Style)
Weight generation scheme         WeightScheme... Becke
Basis function cutoff            BFCut       ...   1.0000e-011
Integration weight cutoff        WCut        ...   1.0000e-014
Grids for H and He will be reduced by one unit

# of grid points (after initial pruning)     ...  16528 (   0.0 sec)
# of grid points (after weights+screening)   ...  15127 (   0.2 sec)
nearest neighbour list constructed           ...    0.0 sec
Grid point re-assignment to atoms done       ...    0.0 sec
Grid point division into batches done        ...    0.0 sec
Reduced shell lists constructed in    0.1 sec

Total number of grid points                  ...    15127
Total number of batches                      ...      249
Average number of points per batch           ...       60
Average number of grid points per atom       ...      540
Average number of shells per batch           ...    33.94 (77.15%)
Average number of basis functions per batch  ...    58.18 (76.55%)
Average number of large shells per batch     ...    24.19 (71.26%)
Average number of large basis fcns per batch ...    41.98 (72.16%)
Maximum spatial batch extension              ...  17.78, 18.08, 18.66 au
Average spatial batch extension              ...   4.17,  4.61,  5.07 au


-----------------
RI-TRANSFORMATION
-----------------

Dimension of the orbital-basis  ... 76
Dimension of the aux-basis      ... 0

An error has occured in the CIS module
CALLING COMMAND: C:\Users\Jan\Desktop\Arbeitsplatz\Apps\orca\_orca_3_0_3/orca_cis C:\Users\Jan\Documents\lib\ORCAunleashed\output\job_11_04_2018_j3\job_11_04_2018_j3.cisinp.tmp
RETURN CODE    : -1073741819
ABORTING THE RUN
